
     Program PWSCF v.6.6 starts on  3Sep2022 at 19:54:52 

     This program is part of the open-source Quantum ESPRESSO suite
     for quantum simulation of materials; please cite
         "P. Giannozzi et al., J. Phys.:Condens. Matter 21 395502 (2009);
         "P. Giannozzi et al., J. Phys.:Condens. Matter 29 465901 (2017);
          URL http://www.quantum-espresso.org", 
     in publications or presentations arising from this work. More details at
     http://www.quantum-espresso.org/quote

     Parallel version (MPI), running on    72 processors

     MPI processes distributed on     3 nodes
     R & G space division:  proc/nbgrp/npool/nimage =      72
     Fft bands division:     nmany     =       1
     Waiting for input...
     Reading input from standard input
Warning: card  &CELL ignored
Warning: card     CELL_DYNAMICS = 'BFGS', ignored
Warning: card     PRESS=0.0, ignored
Warning: card / ignored

     Current dimensions of program PWSCF are:
     Max number of different atomic species (ntypx) = 10
     Max number of k-points (npk) =  40000
     Max angular momentum in pseudopotentials (lmaxx) =  3

     IMPORTANT: XC functional enforced from input :
     Exchange-correlation= PBE
                           (   1   4   3   4   0   0   0)
     Any further DFT definition will be discarded
     Please, verify this is what you really want


     Subspace diagonalization in iterative solution of the eigenvalue problem:
     one sub-group per band group will be used
     scalapack distributed-memory algorithm (size of sub-group:  8*  8 procs)

     Found symmetry operation: I + (  0.0000  0.3333  0.0000)
     This is a supercell, fractional translations are disabled
     Message from routine setup:
     using ibrav=0 with symmetry is DISCOURAGED, use correct ibrav instead
 
     Parallelization info
     --------------------
     sticks:   dense  smooth     PW     G-vecs:    dense   smooth      PW
     Min         171      58     15                34737     6964     975
     Max         172      59     16                34748     6981     992
     Sum       12355    4227   1151              2501453   502135   70963
 


     bravais-lattice index     =            0
     lattice parameter (alat)  =      27.7107  a.u.
     unit-cell volume          =   22620.2167 (a.u.)^3
     number of atoms/cell      =           72
     number of atomic types    =            1
     number of electrons       =      1152.00
     number of Kohn-Sham states=          691
     kinetic-energy cutoff     =      30.0000  Ry
     charge density cutoff     =     350.0000  Ry
     convergence threshold     =      1.0E-06
     mixing beta               =       0.3000
     number of iterations used =            8  plain     mixing
     Exchange-correlation= PBE
                           (   1   4   3   4   0   0   0)
     nstep                     =           50


     celldm(1)=  27.710717  celldm(2)=   0.000000  celldm(3)=   0.000000
     celldm(4)=   0.000000  celldm(5)=   0.000000  celldm(6)=   0.000000

     crystal axes: (cart. coord. in units of alat)
               a(1) = (   1.000000   0.000000   0.000000 )  
               a(2) = (   0.000000   0.577349   0.000000 )  
               a(3) = (   0.000000   0.000000   1.841259 )  

     reciprocal axes: (cart. coord. in units 2 pi/alat)
               b(1) = (  1.000000  0.000000  0.000000 )  
               b(2) = (  0.000000  1.732054  0.000000 )  
               b(3) = (  0.000000  0.000000  0.543107 )  


     PseudoPot. # 1 for Pd read from file:
     ./pseudo-gbrv-pbe/pd_pbe_v1.4.uspp.F.UPF
     MD5 check sum: 2d733d2bc2cbfd217af676df1668a4bc
     Pseudo is Ultrasoft + core correction, Zval = 16.0
     Generated by new atomic code, or converted to UPF format
     Using radial grid of  887 points,  6 beta functions with: 
                l(1) =   0
                l(2) =   0
                l(3) =   1
                l(4) =   1
                l(5) =   2
                l(6) =   2
     Q(r) pseudized with  8 coefficients,  rinner =    1.130   1.130   1.130
                                                       1.130   1.130

     atomic species   valence    mass     pseudopotential
        Pd            16.00   106.42000     Pd( 1.00)

      2 Sym. Ops. (no inversion) found



   Cartesian axes

     site n.     atom                  positions (alat units)
         1           Pd  tau(   1) = (   0.0000000   0.0000000   0.0000000  )
         2           Pd  tau(   2) = (   0.0000000   0.0000000   0.4714042  )
         3           Pd  tau(   3) = (   0.0000000   0.1924500   0.0000000  )
         4           Pd  tau(   4) = (   0.0000000   0.1924500   0.4714042  )
         5           Pd  tau(   5) = (   0.0000000   0.3848999   0.0000000  )
         6           Pd  tau(   6) = (   0.0000000   0.3848999   0.4714042  )
         7           Pd  tau(   7) = (   0.3333331   0.0000000   0.0000000  )
         8           Pd  tau(   8) = (   0.3333331   0.0000000   0.4714042  )
         9           Pd  tau(   9) = (   0.3333331   0.1924500   0.0000000  )
        10           Pd  tau(  10) = (   0.3333331   0.1924500   0.4714042  )
        11           Pd  tau(  11) = (   0.3333331   0.3848999   0.0000000  )
        12           Pd  tau(  12) = (   0.3333331   0.3848999   0.4714042  )
        13           Pd  tau(  13) = (   0.6666662   0.0000000   0.0000000  )
        14           Pd  tau(  14) = (   0.6666662   0.0000000   0.4714042  )
        15           Pd  tau(  15) = (   0.6666662   0.1924500   0.0000000  )
        16           Pd  tau(  16) = (   0.6666662   0.1924500   0.4714042  )
        17           Pd  tau(  17) = (   0.6666662   0.3848999   0.0000000  )
        18           Pd  tau(  18) = (   0.6666662   0.3848999   0.4714042  )
        19           Pd  tau(  19) = (   0.2777776   0.0962250   0.1571347  )
        20           Pd  tau(  20) = (   0.2777776   0.2886750   0.1571347  )
        21           Pd  tau(  21) = (   0.2777776   0.4811249   0.1571347  )
        22           Pd  tau(  22) = (   0.6111107   0.0962250   0.1571347  )
        23           Pd  tau(  23) = (   0.6111107   0.2886750   0.1571347  )
        24           Pd  tau(  24) = (   0.6111107   0.4811249   0.1571347  )
        25           Pd  tau(  25) = (   0.9444438   0.0962250   0.1571347  )
        26           Pd  tau(  26) = (   0.9444438   0.2886750   0.1571347  )
        27           Pd  tau(  27) = (   0.9444438   0.4811249   0.1571347  )
        28           Pd  tau(  28) = (   0.1111110   0.0000000   0.1571347  )
        29           Pd  tau(  29) = (   0.1111110   0.1924500   0.1571347  )
        30           Pd  tau(  30) = (   0.1111110   0.3848999   0.1571347  )
        31           Pd  tau(  31) = (   0.4444442   0.0000000   0.1571347  )
        32           Pd  tau(  32) = (   0.4444442   0.1924500   0.1571347  )
        33           Pd  tau(  33) = (   0.4444442   0.3848999   0.1571347  )
        34           Pd  tau(  34) = (   0.7777772   0.0000000   0.1571347  )
        35           Pd  tau(  35) = (   0.7777772   0.1924500   0.1571347  )
        36           Pd  tau(  36) = (   0.7777772   0.3848999   0.1571347  )
        37           Pd  tau(  37) = (   0.2222221   0.0000000   0.3142695  )
        38           Pd  tau(  38) = (   0.2222221   0.1924500   0.3142695  )
        39           Pd  tau(  39) = (   0.2222221   0.3848999   0.3142695  )
        40           Pd  tau(  40) = (   0.5555551   0.0000000   0.3142695  )
        41           Pd  tau(  41) = (   0.5555551   0.1924500   0.3142695  )
        42           Pd  tau(  42) = (   0.5555551   0.3848999   0.3142695  )
        43           Pd  tau(  43) = (   0.8888883   0.0000000   0.3142695  )
        44           Pd  tau(  44) = (   0.8888883   0.1924500   0.3142695  )
        45           Pd  tau(  45) = (   0.8888883   0.3848999   0.3142695  )
        46           Pd  tau(  46) = (   0.0555555   0.0962250   0.3142695  )
        47           Pd  tau(  47) = (   0.0555555   0.2886750   0.3142695  )
        48           Pd  tau(  48) = (   0.0555555   0.4811249   0.3142695  )
        49           Pd  tau(  49) = (   0.3888886   0.0962250   0.3142695  )
        50           Pd  tau(  50) = (   0.3888886   0.2886750   0.3142695  )
        51           Pd  tau(  51) = (   0.3888886   0.4811249   0.3142695  )
        52           Pd  tau(  52) = (   0.7222217   0.0962250   0.3142695  )
        53           Pd  tau(  53) = (   0.7222217   0.2886750   0.3142695  )
        54           Pd  tau(  54) = (   0.7222217   0.4811249   0.3142695  )
        55           Pd  tau(  55) = (   0.1666665   0.0962250   0.0000000  )
        56           Pd  tau(  56) = (   0.1666665   0.0962250   0.4714042  )
        57           Pd  tau(  57) = (   0.1666665   0.2886750   0.0000000  )
        58           Pd  tau(  58) = (   0.1666665   0.2886750   0.4714042  )
        59           Pd  tau(  59) = (   0.1666665   0.4811249   0.0000000  )
        60           Pd  tau(  60) = (   0.1666665   0.4811249   0.4714042  )
        61           Pd  tau(  61) = (   0.4999997   0.0962250   0.0000000  )
        62           Pd  tau(  62) = (   0.4999997   0.0962250   0.4714042  )
        63           Pd  tau(  63) = (   0.4999997   0.2886750   0.0000000  )
        64           Pd  tau(  64) = (   0.4999997   0.2886750   0.4714042  )
        65           Pd  tau(  65) = (   0.4999997   0.4811249   0.0000000  )
        66           Pd  tau(  66) = (   0.4999997   0.4811249   0.4714042  )
        67           Pd  tau(  67) = (   0.8333328   0.0962250   0.0000000  )
        68           Pd  tau(  68) = (   0.8333328   0.0962250   0.4714042  )
        69           Pd  tau(  69) = (   0.8333328   0.2886750   0.0000000  )
        70           Pd  tau(  70) = (   0.8333328   0.2886750   0.4714042  )
        71           Pd  tau(  71) = (   0.8333328   0.4811249   0.0000000  )
        72           Pd  tau(  72) = (   0.8333328   0.4811249   0.4714042  )

     number of k points=     9  Methfessel-Paxton smearing, width (Ry)=  0.0200
                       cart. coord. in units 2pi/alat
        k(    1) = (   0.0000000   0.0000000   0.0000000), wk =   0.1250000
        k(    2) = (   0.0000000   0.4330135   0.0000000), wk =   0.2500000
        k(    3) = (   0.0000000  -0.8660269   0.0000000), wk =   0.1250000
        k(    4) = (   0.2500000   0.0000000   0.0000000), wk =   0.2500000
        k(    5) = (   0.2500000   0.4330135   0.0000000), wk =   0.5000000
        k(    6) = (   0.2500000  -0.8660269   0.0000000), wk =   0.2500000
        k(    7) = (  -0.5000000   0.0000000   0.0000000), wk =   0.1250000
        k(    8) = (  -0.5000000   0.4330135   0.0000000), wk =   0.2500000
        k(    9) = (  -0.5000000  -0.8660269   0.0000000), wk =   0.1250000

     Dense  grid:  2501453 G-vectors     FFT dimensions: ( 180,  96, 320)

     Smooth grid:   502135 G-vectors     FFT dimensions: ( 100,  60, 180)

     Estimated max dynamical RAM per process >     343.30 MB

     Estimated total dynamical RAM >      24.14 GB

     Initial potential from superposition of free atoms

     starting charge 1115.99950, renormalised to 1152.00000

     negative rho (up, down):  5.634E+00 0.000E+00
     Starting wfcs are  864 randomized atomic wfcs

     total cpu time spent up to now is       89.2 secs

     Self-consistent Calculation

     iteration #  1     ecut=    30.00 Ry     beta= 0.30
     Davidson diagonalization with overlap
     ethr =  1.00E-02,  avg # of iterations =  8.1

     negative rho (up, down):  5.594E+00 0.000E+00

     total cpu time spent up to now is      868.8 secs

     total energy              =  -14209.72987954 Ry
     estimated scf accuracy    <     271.25899885 Ry

     iteration #  2     ecut=    30.00 Ry     beta= 0.30
     Davidson diagonalization with overlap
     ethr =  1.00E-02,  avg # of iterations =  5.4

     negative rho (up, down):  5.614E+00 0.000E+00

     total cpu time spent up to now is     1719.5 secs

     total energy              =  -14212.98034385 Ry
     estimated scf accuracy    <    1239.68545199 Ry

     iteration #  3     ecut=    30.00 Ry     beta= 0.30
     Davidson diagonalization with overlap
     ethr =  1.00E-02,  avg # of iterations =  3.0

     negative rho (up, down):  5.650E+00 0.000E+00

     total cpu time spent up to now is     2231.0 secs

     total energy              =  -14299.53140749 Ry
     estimated scf accuracy    <      82.38658989 Ry

     iteration #  4     ecut=    30.00 Ry     beta= 0.30
     Davidson diagonalization with overlap
     ethr =  7.15E-03,  avg # of iterations =  1.3

     negative rho (up, down):  5.663E+00 0.000E+00

     total cpu time spent up to now is     2673.3 secs

     total energy              =  -14301.90876227 Ry
     estimated scf accuracy    <      31.18817761 Ry

     iteration #  5     ecut=    30.00 Ry     beta= 0.30
     Davidson diagonalization with overlap
     ethr =  2.71E-03,  avg # of iterations =  3.8

     negative rho (up, down):  5.667E+00 0.000E+00

     total cpu time spent up to now is     2949.3 secs

     total energy              =  -14297.32686549 Ry
     estimated scf accuracy    <     537.04191639 Ry

     iteration #  6     ecut=    30.00 Ry     beta= 0.30
     Davidson diagonalization with overlap
     ethr =  2.71E-03,  avg # of iterations =  2.9

     negative rho (up, down):  5.669E+00 0.000E+00

     total cpu time spent up to now is     3261.8 secs

     total energy              =  -14303.90281295 Ry
     estimated scf accuracy    <      30.89951409 Ry

     iteration #  7     ecut=    30.00 Ry     beta= 0.30
     Davidson diagonalization with overlap
     ethr =  2.68E-03,  avg # of iterations =  1.1

     negative rho (up, down):  5.669E+00 0.000E+00

     total cpu time spent up to now is     3363.1 secs

     total energy              =  -14304.16323679 Ry
     estimated scf accuracy    <      29.22294319 Ry

     iteration #  8     ecut=    30.00 Ry     beta= 0.30
     Davidson diagonalization with overlap
     ethr =  2.54E-03,  avg # of iterations =  1.0

     negative rho (up, down):  5.671E+00 0.000E+00

     total cpu time spent up to now is     3418.3 secs

     total energy              =  -14304.15421029 Ry
     estimated scf accuracy    <      11.25899601 Ry

     iteration #  9     ecut=    30.00 Ry     beta= 0.30
     Davidson diagonalization with overlap
     ethr =  9.77E-04,  avg # of iterations =  1.4

     negative rho (up, down):  5.672E+00 0.000E+00

     total cpu time spent up to now is     3504.5 secs

     total energy              =  -14304.08742896 Ry
     estimated scf accuracy    <       9.14549176 Ry

     iteration # 10     ecut=    30.00 Ry     beta= 0.30
     Davidson diagonalization with overlap
     ethr =  7.94E-04,  avg # of iterations =  1.1

     negative rho (up, down):  5.691E+00 0.000E+00

     total cpu time spent up to now is     3549.2 secs

     total energy              =  -14302.82219067 Ry
     estimated scf accuracy    <       8.56420484 Ry

     iteration # 11     ecut=    30.00 Ry     beta= 0.30
     Davidson diagonalization with overlap
     ethr =  7.43E-04,  avg # of iterations =  6.7

     negative rho (up, down):  5.694E+00 0.000E+00

     total cpu time spent up to now is     3605.3 secs

     total energy              =  -14303.03014754 Ry
     estimated scf accuracy    <      26.45043064 Ry

     iteration # 12     ecut=    30.00 Ry     beta= 0.30
     Davidson diagonalization with overlap
     ethr =  7.43E-04,  avg # of iterations =  2.4

     negative rho (up, down):  5.696E+00 0.000E+00

     total cpu time spent up to now is     3639.4 secs

     total energy              =  -14302.99967974 Ry
     estimated scf accuracy    <      15.09580536 Ry

     iteration # 13     ecut=    30.00 Ry     beta= 0.30
     Davidson diagonalization with overlap
     ethr =  7.43E-04,  avg # of iterations =  2.7

     negative rho (up, down):  5.695E+00 0.000E+00

     total cpu time spent up to now is     3698.5 secs

     total energy              =  -14303.00530547 Ry
     estimated scf accuracy    <       9.05007236 Ry

     iteration # 14     ecut=    30.00 Ry     beta= 0.30
     Davidson diagonalization with overlap
     ethr =  7.43E-04,  avg # of iterations =  1.7

     negative rho (up, down):  5.701E+00 0.000E+00

     total cpu time spent up to now is     3737.8 secs

     total energy              =  -14303.07250972 Ry
     estimated scf accuracy    <       2.73311626 Ry

     iteration # 15     ecut=    30.00 Ry     beta= 0.30
     Davidson diagonalization with overlap
     ethr =  2.37E-04,  avg # of iterations =  9.9

     negative rho (up, down):  5.703E+00 0.000E+00

     total cpu time spent up to now is     3791.1 secs

     total energy              =  -14302.90286894 Ry
     estimated scf accuracy    <      12.63948545 Ry

     iteration # 16     ecut=    30.00 Ry     beta= 0.30
     Davidson diagonalization with overlap
     ethr =  2.37E-04,  avg # of iterations =  3.9

     negative rho (up, down):  5.705E+00 0.000E+00

     total cpu time spent up to now is     3855.1 secs

     total energy              =  -14302.93029670 Ry
     estimated scf accuracy    <      16.84936580 Ry

     iteration # 17     ecut=    30.00 Ry     beta= 0.30
     Davidson diagonalization with overlap
     ethr =  2.37E-04,  avg # of iterations =  4.8

     negative rho (up, down):  5.711E+00 0.000E+00

     total cpu time spent up to now is     3902.2 secs

     total energy              =  -14303.00941313 Ry
     estimated scf accuracy    <       5.12586104 Ry

     iteration # 18     ecut=    30.00 Ry     beta= 0.30
     Davidson diagonalization with overlap
     ethr =  2.37E-04,  avg # of iterations = 13.1

     negative rho (up, down):  5.712E+00 0.000E+00

     total cpu time spent up to now is     3963.3 secs

     total energy              =  -14302.92513298 Ry
     estimated scf accuracy    <       7.02395205 Ry

     iteration # 19     ecut=    30.00 Ry     beta= 0.30
     Davidson diagonalization with overlap
     ethr =  2.37E-04,  avg # of iterations =  2.1

     negative rho (up, down):  5.707E+00 0.000E+00

     total cpu time spent up to now is     4015.3 secs

     total energy              =  -14302.48772101 Ry
     estimated scf accuracy    <      49.33736420 Ry

     iteration # 20     ecut=    30.00 Ry     beta= 0.30
     Davidson diagonalization with overlap
     ethr =  2.37E-04,  avg # of iterations =  1.9

     negative rho (up, down):  5.711E+00 0.000E+00

     total cpu time spent up to now is     4063.2 secs

     total energy              =  -14303.09012753 Ry
     estimated scf accuracy    <       1.17454584 Ry

     iteration # 21     ecut=    30.00 Ry     beta= 0.30
     Davidson diagonalization with overlap
     ethr =  1.02E-04,  avg # of iterations =  4.4

     negative rho (up, down):  5.713E+00 0.000E+00

     total cpu time spent up to now is     4103.0 secs

     total energy              =  -14303.07081173 Ry
     estimated scf accuracy    <       2.09973621 Ry

     iteration # 22     ecut=    30.00 Ry     beta= 0.30
     Davidson diagonalization with overlap
     ethr =  1.02E-04,  avg # of iterations =  2.9

     negative rho (up, down):  5.715E+00 0.000E+00

     total cpu time spent up to now is     4151.5 secs

     total energy              =  -14303.09187044 Ry
     estimated scf accuracy    <       1.53686692 Ry

     iteration # 23     ecut=    30.00 Ry     beta= 0.30
     Davidson diagonalization with overlap
     c_bands:  1 eigenvalues not converged
     ethr =  1.02E-04,  avg # of iterations =  5.6

     negative rho (up, down):  5.714E+00 0.000E+00

     total cpu time spent up to now is     4195.7 secs

     total energy              =  -14303.09754799 Ry
     estimated scf accuracy    <       0.82816754 Ry

     iteration # 24     ecut=    30.00 Ry     beta= 0.30
     Davidson diagonalization with overlap
     ethr =  7.19E-05,  avg # of iterations =  3.2

     negative rho (up, down):  5.715E+00 0.000E+00

     total cpu time spent up to now is     4245.7 secs

     total energy              =  -14303.07469501 Ry
     estimated scf accuracy    <       2.67640853 Ry

     iteration # 25     ecut=    30.00 Ry     beta= 0.30
     Davidson diagonalization with overlap
     ethr =  7.19E-05,  avg # of iterations =  1.2

     negative rho (up, down):  5.718E+00 0.000E+00

     total cpu time spent up to now is     4351.4 secs

     total energy              =  -14303.10352825 Ry
     estimated scf accuracy    <       0.43478899 Ry

     iteration # 26     ecut=    30.00 Ry     beta= 0.30
     Davidson diagonalization with overlap
     c_bands:  2 eigenvalues not converged
     c_bands:  4 eigenvalues not converged
     ethr =  3.77E-05,  avg # of iterations = 13.7

     negative rho (up, down):  5.718E+00 0.000E+00

     total cpu time spent up to now is     4423.0 secs

     total energy              =  -14303.08538563 Ry
     estimated scf accuracy    <       2.53378159 Ry

     iteration # 27     ecut=    30.00 Ry     beta= 0.30
     Davidson diagonalization with overlap
     ethr =  3.77E-05,  avg # of iterations =  3.1

     negative rho (up, down):  5.719E+00 0.000E+00

     total cpu time spent up to now is     4460.3 secs

     total energy              =  -14303.11262361 Ry
     estimated scf accuracy    <       0.16523747 Ry

     iteration # 28     ecut=    30.00 Ry     beta= 0.30
     Davidson diagonalization with overlap
     c_bands:  2 eigenvalues not converged
     c_bands:  3 eigenvalues not converged
     ethr =  1.43E-05,  avg # of iterations = 12.7

     negative rho (up, down):  5.721E+00 0.000E+00

     total cpu time spent up to now is     4527.0 secs

     total energy              =  -14303.11192842 Ry
     estimated scf accuracy    <       0.14461305 Ry

     iteration # 29     ecut=    30.00 Ry     beta= 0.30
     Davidson diagonalization with overlap
     c_bands:  2 eigenvalues not converged
     ethr =  1.26E-05,  avg # of iterations =  6.8

     negative rho (up, down):  5.720E+00 0.000E+00

     total cpu time spent up to now is     4584.7 secs

     total energy              =  -14303.10727270 Ry
     estimated scf accuracy    <       0.15197347 Ry

     iteration # 30     ecut=    30.00 Ry     beta= 0.30
     Davidson diagonalization with overlap
     ethr =  1.26E-05,  avg # of iterations =  3.4

     negative rho (up, down):  5.721E+00 0.000E+00

     total cpu time spent up to now is     4626.3 secs

     total energy              =  -14303.09542965 Ry
     estimated scf accuracy    <       0.67477565 Ry

     iteration # 31     ecut=    30.00 Ry     beta= 0.30
     Davidson diagonalization with overlap
     ethr =  1.26E-05,  avg # of iterations =  1.1

     negative rho (up, down):  5.721E+00 0.000E+00

     total cpu time spent up to now is     4735.3 secs

     total energy              =  -14303.10929412 Ry
     estimated scf accuracy    <       0.34224843 Ry

     iteration # 32     ecut=    30.00 Ry     beta= 0.30
     Davidson diagonalization with overlap
     ethr =  1.26E-05,  avg # of iterations =  1.0

     negative rho (up, down):  5.722E+00 0.000E+00

     total cpu time spent up to now is     4769.7 secs

     total energy              =  -14303.11230962 Ry
     estimated scf accuracy    <       0.22003325 Ry

     iteration # 33     ecut=    30.00 Ry     beta= 0.30
     Davidson diagonalization with overlap
     c_bands:  1 eigenvalues not converged
     ethr =  1.26E-05,  avg # of iterations =  3.1

     negative rho (up, down):  5.722E+00 0.000E+00

     total cpu time spent up to now is     4831.4 secs

     total energy              =  -14303.11359241 Ry
     estimated scf accuracy    <       0.11029243 Ry

     iteration # 34     ecut=    30.00 Ry     beta= 0.30
     Davidson diagonalization with overlap
     ethr =  9.57E-06,  avg # of iterations =  1.2

     negative rho (up, down):  5.722E+00 0.000E+00

     total cpu time spent up to now is     4859.3 secs

     total energy              =  -14303.11339316 Ry
     estimated scf accuracy    <       0.05948321 Ry

     iteration # 35     ecut=    30.00 Ry     beta= 0.30
     Davidson diagonalization with overlap
     ethr =  5.16E-06,  avg # of iterations =  1.1

     negative rho (up, down):  5.724E+00 0.000E+00

     total cpu time spent up to now is     4895.6 secs

     total energy              =  -14303.11403279 Ry
     estimated scf accuracy    <       0.06361840 Ry

     iteration # 36     ecut=    30.00 Ry     beta= 0.30
     Davidson diagonalization with overlap
     ethr =  5.16E-06,  avg # of iterations =  1.0

     negative rho (up, down):  5.723E+00 0.000E+00

     total cpu time spent up to now is     4929.2 secs

     total energy              =  -14303.11359826 Ry
     estimated scf accuracy    <       0.07187903 Ry

     iteration # 37     ecut=    30.00 Ry     beta= 0.30
     Davidson diagonalization with overlap
     ethr =  5.16E-06,  avg # of iterations =  1.0

     negative rho (up, down):  5.723E+00 0.000E+00

     total cpu time spent up to now is     4977.5 secs

     total energy              =  -14303.11366026 Ry
     estimated scf accuracy    <       0.20290235 Ry

     iteration # 38     ecut=    30.00 Ry     beta= 0.30
     Davidson diagonalization with overlap
     ethr =  5.16E-06,  avg # of iterations =  1.0

     negative rho (up, down):  5.724E+00 0.000E+00

     total cpu time spent up to now is     5005.7 secs

     total energy              =  -14303.11487915 Ry
     estimated scf accuracy    <       0.01144368 Ry

     iteration # 39     ecut=    30.00 Ry     beta= 0.30
     Davidson diagonalization with overlap
     c_bands:  2 eigenvalues not converged
     ethr =  9.93E-07,  avg # of iterations =  3.9

     negative rho (up, down):  5.724E+00 0.000E+00

     total cpu time spent up to now is     5080.5 secs

     total energy              =  -14303.11325537 Ry
     estimated scf accuracy    <       0.13782817 Ry

     iteration # 40     ecut=    30.00 Ry     beta= 0.30
     Davidson diagonalization with overlap
     ethr =  9.93E-07,  avg # of iterations =  2.6

     negative rho (up, down):  5.725E+00 0.000E+00

     total cpu time spent up to now is     5125.2 secs

     total energy              =  -14303.11548733 Ry
     estimated scf accuracy    <       0.00611939 Ry

     iteration # 41     ecut=    30.00 Ry     beta= 0.30
     Davidson diagonalization with overlap
     ethr =  5.31E-07,  avg # of iterations =  1.1

     negative rho (up, down):  5.725E+00 0.000E+00

     total cpu time spent up to now is     5163.2 secs

     total energy              =  -14303.11545043 Ry
     estimated scf accuracy    <       0.00712115 Ry

     iteration # 42     ecut=    30.00 Ry     beta= 0.30
     Davidson diagonalization with overlap
     ethr =  5.31E-07,  avg # of iterations =  1.1

     negative rho (up, down):  5.726E+00 0.000E+00

     total cpu time spent up to now is     5201.7 secs

     total energy              =  -14303.11541362 Ry
     estimated scf accuracy    <       0.02563555 Ry

     iteration # 43     ecut=    30.00 Ry     beta= 0.30
     Davidson diagonalization with overlap
     ethr =  5.31E-07,  avg # of iterations =  1.1

     negative rho (up, down):  5.726E+00 0.000E+00

     total cpu time spent up to now is     5287.9 secs

     total energy              =  -14303.11562771 Ry
     estimated scf accuracy    <       0.00966275 Ry

     iteration # 44     ecut=    30.00 Ry     beta= 0.30
     Davidson diagonalization with overlap
     ethr =  5.31E-07,  avg # of iterations =  1.2

     negative rho (up, down):  5.727E+00 0.000E+00

     total cpu time spent up to now is     5330.8 secs

     total energy              =  -14303.11566414 Ry
     estimated scf accuracy    <       0.00461605 Ry

     iteration # 45     ecut=    30.00 Ry     beta= 0.30
     Davidson diagonalization with overlap
     ethr =  4.01E-07,  avg # of iterations =  1.1

     negative rho (up, down):  5.728E+00 0.000E+00

     total cpu time spent up to now is     5422.5 secs

     total energy              =  -14303.11571374 Ry
     estimated scf accuracy    <       0.00907426 Ry

     iteration # 46     ecut=    30.00 Ry     beta= 0.30
     Davidson diagonalization with overlap
     ethr =  4.01E-07,  avg # of iterations =  3.3

     negative rho (up, down):  5.728E+00 0.000E+00

     total cpu time spent up to now is     5472.1 secs

     total energy              =  -14303.11569887 Ry
     estimated scf accuracy    <       0.00660984 Ry

     iteration # 47     ecut=    30.00 Ry     beta= 0.30
     Davidson diagonalization with overlap
     ethr =  4.01E-07,  avg # of iterations =  1.0

     negative rho (up, down):  5.728E+00 0.000E+00

     total cpu time spent up to now is     5514.8 secs

     total energy              =  -14303.11512650 Ry
     estimated scf accuracy    <       0.09223596 Ry

     iteration # 48     ecut=    30.00 Ry     beta= 0.30
     Davidson diagonalization with overlap
     ethr =  4.01E-07,  avg # of iterations =  1.0

     negative rho (up, down):  5.729E+00 0.000E+00

     total cpu time spent up to now is     5547.8 secs

     total energy              =  -14303.11583356 Ry
     estimated scf accuracy    <       0.00297156 Ry

     iteration # 49     ecut=    30.00 Ry     beta= 0.30
     Davidson diagonalization with overlap
     ethr =  2.58E-07,  avg # of iterations =  1.0

     negative rho (up, down):  5.729E+00 0.000E+00

     total cpu time spent up to now is     5604.1 secs

     total energy              =  -14303.11584443 Ry
     estimated scf accuracy    <       0.00268802 Ry

     iteration # 50     ecut=    30.00 Ry     beta= 0.30
     Davidson diagonalization with overlap
     ethr =  2.33E-07,  avg # of iterations =  1.0

     negative rho (up, down):  5.730E+00 0.000E+00

     total cpu time spent up to now is     5673.9 secs

     total energy              =  -14303.11590511 Ry
     estimated scf accuracy    <       0.00140335 Ry

     iteration # 51     ecut=    30.00 Ry     beta= 0.30
     Davidson diagonalization with overlap
     ethr =  1.22E-07,  avg # of iterations =  1.0

     negative rho (up, down):  5.730E+00 0.000E+00

     total cpu time spent up to now is     5706.7 secs

     total energy              =  -14303.11591057 Ry
     estimated scf accuracy    <       0.00071736 Ry

     iteration # 52     ecut=    30.00 Ry     beta= 0.30
     Davidson diagonalization with overlap
     ethr =  6.23E-08,  avg # of iterations =  1.0

     negative rho (up, down):  5.731E+00 0.000E+00

     total cpu time spent up to now is     5792.2 secs

     total energy              =  -14303.11590028 Ry
     estimated scf accuracy    <       0.00313065 Ry

     iteration # 53     ecut=    30.00 Ry     beta= 0.30
     Davidson diagonalization with overlap
     ethr =  6.23E-08,  avg # of iterations =  1.0

     negative rho (up, down):  5.731E+00 0.000E+00

     total cpu time spent up to now is     5879.9 secs

     total energy              =  -14303.11592925 Ry
     estimated scf accuracy    <       0.00128673 Ry

     iteration # 54     ecut=    30.00 Ry     beta= 0.30
     Davidson diagonalization with overlap
     ethr =  6.23E-08,  avg # of iterations =  1.0

     negative rho (up, down):  5.732E+00 0.000E+00

     total cpu time spent up to now is     5923.1 secs

     total energy              =  -14303.11593797 Ry
     estimated scf accuracy    <       0.00058984 Ry

     iteration # 55     ecut=    30.00 Ry     beta= 0.30
     Davidson diagonalization with overlap
     ethr =  5.12E-08,  avg # of iterations =  1.0

     negative rho (up, down):  5.732E+00 0.000E+00

     total cpu time spent up to now is     5953.9 secs

     total energy              =  -14303.11593882 Ry
     estimated scf accuracy    <       0.00091981 Ry

     iteration # 56     ecut=    30.00 Ry     beta= 0.30
     Davidson diagonalization with overlap
     ethr =  5.12E-08,  avg # of iterations =  1.0

     negative rho (up, down):  5.733E+00 0.000E+00

     total cpu time spent up to now is     5992.1 secs

     total energy              =  -14303.11594411 Ry
     estimated scf accuracy    <       0.00118233 Ry

     iteration # 57     ecut=    30.00 Ry     beta= 0.30
     Davidson diagonalization with overlap
     ethr =  5.12E-08,  avg # of iterations =  1.0

     negative rho (up, down):  5.732E+00 0.000E+00

     total cpu time spent up to now is     6039.9 secs

     total energy              =  -14303.11591090 Ry
     estimated scf accuracy    <       0.00486414 Ry

     iteration # 58     ecut=    30.00 Ry     beta= 0.30
     Davidson diagonalization with overlap
     ethr =  5.12E-08,  avg # of iterations =  1.0

     negative rho (up, down):  5.733E+00 0.000E+00

     total cpu time spent up to now is     6080.4 secs

     total energy              =  -14303.11594517 Ry
     estimated scf accuracy    <       0.00096179 Ry

     iteration # 59     ecut=    30.00 Ry     beta= 0.30
     Davidson diagonalization with overlap
     ethr =  5.12E-08,  avg # of iterations =  1.0

     negative rho (up, down):  5.733E+00 0.000E+00

     total cpu time spent up to now is     6122.2 secs

     total energy              =  -14303.11595435 Ry
     estimated scf accuracy    <       0.00028170 Ry

     iteration # 60     ecut=    30.00 Ry     beta= 0.30
     Davidson diagonalization with overlap
     ethr =  2.45E-08,  avg # of iterations =  1.0

     negative rho (up, down):  5.734E+00 0.000E+00

     total cpu time spent up to now is     6162.2 secs

     total energy              =  -14303.11595636 Ry
     estimated scf accuracy    <       0.00031466 Ry

     iteration # 61     ecut=    30.00 Ry     beta= 0.30
     Davidson diagonalization with overlap
     ethr =  2.45E-08,  avg # of iterations =  1.0

     negative rho (up, down):  5.734E+00 0.000E+00

     total cpu time spent up to now is     6229.8 secs

     total energy              =  -14303.11595776 Ry
     estimated scf accuracy    <       0.00017993 Ry

     iteration # 62     ecut=    30.00 Ry     beta= 0.30
     Davidson diagonalization with overlap
     ethr =  1.56E-08,  avg # of iterations =  2.6

     negative rho (up, down):  5.734E+00 0.000E+00

     total cpu time spent up to now is     6266.3 secs

     total energy              =  -14303.11595786 Ry
     estimated scf accuracy    <       0.00031384 Ry

     iteration # 63     ecut=    30.00 Ry     beta= 0.30
     Davidson diagonalization with overlap
     ethr =  1.56E-08,  avg # of iterations =  1.0

     negative rho (up, down):  5.734E+00 0.000E+00

     total cpu time spent up to now is     6301.0 secs

     total energy              =  -14303.11596000 Ry
     estimated scf accuracy    <       0.00022796 Ry

     iteration # 64     ecut=    30.00 Ry     beta= 0.30
     Davidson diagonalization with overlap
     ethr =  1.56E-08,  avg # of iterations =  1.0

     negative rho (up, down):  5.734E+00 0.000E+00

     total cpu time spent up to now is     6334.1 secs

     total energy              =  -14303.11596117 Ry
     estimated scf accuracy    <       0.00007781 Ry

     iteration # 65     ecut=    30.00 Ry     beta= 0.30
     Davidson diagonalization with overlap
     ethr =  6.75E-09,  avg # of iterations =  1.0

     negative rho (up, down):  5.735E+00 0.000E+00

     total cpu time spent up to now is     6404.6 secs

     total energy              =  -14303.11596097 Ry
     estimated scf accuracy    <       0.00009834 Ry

     iteration # 66     ecut=    30.00 Ry     beta= 0.30
     Davidson diagonalization with overlap
     ethr =  6.75E-09,  avg # of iterations =  1.0

     negative rho (up, down):  5.735E+00 0.000E+00

     total cpu time spent up to now is     6448.4 secs

     total energy              =  -14303.11596132 Ry
     estimated scf accuracy    <       0.00013410 Ry

     iteration # 67     ecut=    30.00 Ry     beta= 0.30
     Davidson diagonalization with overlap
     ethr =  6.75E-09,  avg # of iterations =  1.0

     negative rho (up, down):  5.735E+00 0.000E+00

     total cpu time spent up to now is     6485.2 secs

     total energy              =  -14303.11595915 Ry
     estimated scf accuracy    <       0.00034231 Ry

     iteration # 68     ecut=    30.00 Ry     beta= 0.30
     Davidson diagonalization with overlap
     ethr =  6.75E-09,  avg # of iterations =  1.0

     negative rho (up, down):  5.735E+00 0.000E+00

     total cpu time spent up to now is     6516.5 secs

     total energy              =  -14303.11595994 Ry
     estimated scf accuracy    <       0.00024823 Ry

     iteration # 69     ecut=    30.00 Ry     beta= 0.30
     Davidson diagonalization with overlap
     ethr =  6.75E-09,  avg # of iterations =  1.0

     negative rho (up, down):  5.735E+00 0.000E+00

     total cpu time spent up to now is     6547.0 secs

     total energy              =  -14303.11596168 Ry
     estimated scf accuracy    <       0.00005361 Ry

     iteration # 70     ecut=    30.00 Ry     beta= 0.30
     Davidson diagonalization with overlap
     ethr =  4.65E-09,  avg # of iterations =  1.0

     negative rho (up, down):  5.735E+00 0.000E+00

     total cpu time spent up to now is     6588.4 secs

     total energy              =  -14303.11596164 Ry
     estimated scf accuracy    <       0.00005640 Ry

     iteration # 71     ecut=    30.00 Ry     beta= 0.30
     Davidson diagonalization with overlap
     ethr =  4.65E-09,  avg # of iterations =  1.0

     negative rho (up, down):  5.735E+00 0.000E+00

     total cpu time spent up to now is     6674.3 secs

     total energy              =  -14303.11596201 Ry
     estimated scf accuracy    <       0.00002575 Ry

     iteration # 72     ecut=    30.00 Ry     beta= 0.30
     Davidson diagonalization with overlap
     ethr =  2.23E-09,  avg # of iterations =  1.0

     negative rho (up, down):  5.735E+00 0.000E+00

     total cpu time spent up to now is     6744.2 secs

     total energy              =  -14303.11596180 Ry
     estimated scf accuracy    <       0.00005065 Ry

     iteration # 73     ecut=    30.00 Ry     beta= 0.30
     Davidson diagonalization with overlap
     ethr =  2.23E-09,  avg # of iterations =  1.0

     negative rho (up, down):  5.736E+00 0.000E+00

     total cpu time spent up to now is     6849.9 secs

     total energy              =  -14303.11596194 Ry
     estimated scf accuracy    <       0.00004691 Ry

     iteration # 74     ecut=    30.00 Ry     beta= 0.30
     Davidson diagonalization with overlap
     ethr =  2.23E-09,  avg # of iterations =  1.0

     negative rho (up, down):  5.736E+00 0.000E+00

     total cpu time spent up to now is     6888.0 secs

     total energy              =  -14303.11596211 Ry
     estimated scf accuracy    <       0.00001131 Ry

     iteration # 75     ecut=    30.00 Ry     beta= 0.30
     Davidson diagonalization with overlap
     ethr =  9.82E-10,  avg # of iterations =  1.0

     negative rho (up, down):  5.736E+00 0.000E+00

     total cpu time spent up to now is     6946.0 secs

     total energy              =  -14303.11596202 Ry
     estimated scf accuracy    <       0.00001305 Ry

     iteration # 76     ecut=    30.00 Ry     beta= 0.30
     Davidson diagonalization with overlap
     ethr =  9.82E-10,  avg # of iterations =  1.0

     negative rho (up, down):  5.736E+00 0.000E+00

     total cpu time spent up to now is     6983.3 secs

     total energy              =  -14303.11596196 Ry
     estimated scf accuracy    <       0.00001638 Ry

     iteration # 77     ecut=    30.00 Ry     beta= 0.30
     Davidson diagonalization with overlap
     ethr =  9.82E-10,  avg # of iterations =  1.0

     negative rho (up, down):  5.736E+00 0.000E+00

     total cpu time spent up to now is     7056.0 secs

     total energy              =  -14303.11596179 Ry
     estimated scf accuracy    <       0.00002635 Ry

     iteration # 78     ecut=    30.00 Ry     beta= 0.30
     Davidson diagonalization with overlap
     ethr =  9.82E-10,  avg # of iterations =  1.0

     negative rho (up, down):  5.736E+00 0.000E+00

     total cpu time spent up to now is     7085.0 secs

     total energy              =  -14303.11596158 Ry
     estimated scf accuracy    <       0.00004984 Ry

     iteration # 79     ecut=    30.00 Ry     beta= 0.30
     Davidson diagonalization with overlap
     ethr =  9.82E-10,  avg # of iterations =  1.0

     negative rho (up, down):  5.736E+00 0.000E+00

     total cpu time spent up to now is     7116.9 secs

     total energy              =  -14303.11596177 Ry
     estimated scf accuracy    <       0.00001042 Ry

     iteration # 80     ecut=    30.00 Ry     beta= 0.30
     Davidson diagonalization with overlap
     ethr =  9.04E-10,  avg # of iterations =  1.0

     negative rho (up, down):  5.736E+00 0.000E+00

     total cpu time spent up to now is     7174.2 secs

     total energy              =  -14303.11596175 Ry
     estimated scf accuracy    <       0.00000790 Ry

     iteration # 81     ecut=    30.00 Ry     beta= 0.30
     Davidson diagonalization with overlap
     ethr =  6.86E-10,  avg # of iterations =  1.0

     negative rho (up, down):  5.736E+00 0.000E+00

     total cpu time spent up to now is     7207.1 secs

     total energy              =  -14303.11596178 Ry
     estimated scf accuracy    <       0.00000374 Ry

     iteration # 82     ecut=    30.00 Ry     beta= 0.30
     Davidson diagonalization with overlap
     ethr =  3.25E-10,  avg # of iterations =  1.0

     negative rho (up, down):  5.736E+00 0.000E+00

     total cpu time spent up to now is     7247.7 secs

     total energy              =  -14303.11596170 Ry
     estimated scf accuracy    <       0.00000878 Ry

     iteration # 83     ecut=    30.00 Ry     beta= 0.30
     Davidson diagonalization with overlap
     ethr =  3.25E-10,  avg # of iterations =  1.0

     negative rho (up, down):  5.736E+00 0.000E+00

     total cpu time spent up to now is     7336.7 secs

     total energy              =  -14303.11596166 Ry
     estimated scf accuracy    <       0.00001026 Ry

     iteration # 84     ecut=    30.00 Ry     beta= 0.30
     Davidson diagonalization with overlap
     ethr =  3.25E-10,  avg # of iterations =  1.0

     negative rho (up, down):  5.736E+00 0.000E+00

     total cpu time spent up to now is     7437.9 secs

     total energy              =  -14303.11596168 Ry
     estimated scf accuracy    <       0.00000192 Ry

     iteration # 85     ecut=    30.00 Ry     beta= 0.30
     Davidson diagonalization with overlap
     ethr =  1.67E-10,  avg # of iterations =  1.0

     negative rho (up, down):  5.736E+00 0.000E+00

     total cpu time spent up to now is     7519.3 secs

     total energy              =  -14303.11596166 Ry
     estimated scf accuracy    <       0.00000185 Ry

     iteration # 86     ecut=    30.00 Ry     beta= 0.30
     Davidson diagonalization with overlap
     ethr =  1.61E-10,  avg # of iterations =  1.0

     negative rho (up, down):  5.736E+00 0.000E+00

     total cpu time spent up to now is     7567.6 secs

     total energy              =  -14303.11596160 Ry
     estimated scf accuracy    <       0.00000262 Ry

     iteration # 87     ecut=    30.00 Ry     beta= 0.30
     Davidson diagonalization with overlap
     ethr =  1.61E-10,  avg # of iterations =  1.0

     negative rho (up, down):  5.736E+00 0.000E+00

     total cpu time spent up to now is     7602.7 secs

     total energy              =  -14303.11596157 Ry
     estimated scf accuracy    <       0.00000219 Ry

     iteration # 88     ecut=    30.00 Ry     beta= 0.30
     Davidson diagonalization with overlap
     ethr =  1.61E-10,  avg # of iterations =  1.0

     negative rho (up, down):  5.736E+00 0.000E+00

     total cpu time spent up to now is     7629.6 secs

     total energy              =  -14303.11596152 Ry
     estimated scf accuracy    <       0.00000746 Ry

     iteration # 89     ecut=    30.00 Ry     beta= 0.30
     Davidson diagonalization with overlap
     ethr =  1.61E-10,  avg # of iterations =  1.0

     negative rho (up, down):  5.736E+00 0.000E+00

     total cpu time spent up to now is     7675.8 secs

     total energy              =  -14303.11596150 Ry
     estimated scf accuracy    <       0.00000170 Ry

     iteration # 90     ecut=    30.00 Ry     beta= 0.30
     Davidson diagonalization with overlap
     ethr =  1.47E-10,  avg # of iterations =  1.0

     negative rho (up, down):  5.737E+00 0.000E+00

     total cpu time spent up to now is     7712.9 secs

     End of self-consistent calculation

          k = 0.0000 0.0000 0.0000 ( 62771 PWs)   bands (ev):

   -47.5433 -47.5275 -47.5119 -47.5119 -47.5119 -47.5119 -47.5026 -47.5009
   -47.5009 -47.5009 -47.5009 -47.4902 -47.4902 -47.4886 -47.4886 -47.4885
   -47.4885 -47.4870 -47.4870 -47.4824 -47.4823 -47.4821 -47.4821 -47.4821
   -47.4821 -47.4738 -47.4738 -47.4735 -47.4735 -47.4720 -47.4720 -47.4705
   -47.4705 -47.4438 -47.4438 -47.4311 -47.4311 -47.4191 -47.4190 -47.4178
   -47.4178 -47.4178 -47.4177 -47.4161 -47.4161 -47.4161 -47.4161 -47.4112
   -47.4112 -47.4102 -47.3934 -47.3934 -47.3934 -47.3934 -47.3819 -47.3819
   -47.3714 -47.3714 -47.3704 -47.3704 -47.3681 -47.3676 -47.3667 -47.3666
   -47.3666 -47.3666 -47.3557 -47.3531 -47.3530 -47.3530 -47.3530 -47.3529
   -47.3529 -47.3529 -47.3529 -47.3529 -47.3528 -47.3522 -47.3522 -47.3522
   -47.3522 -47.3515 -47.3514 -47.3485 -47.3484 -47.3464 -47.3463 -47.3400
   -47.3399 -47.3347 -47.3347 -47.3293 -47.3253 -47.3252 -47.3184 -47.3184
   -47.3184 -47.3184 -47.3171 -47.3171 -47.3169 -47.3169 -47.3018 -47.2998
   -47.2914 -47.2913 -47.2798 -47.2778 -47.2456 -47.2434 -47.2166 -47.2166
   -47.2166 -47.2166 -47.2156 -47.2155 -47.2155 -47.2155 -47.1952 -47.1951
   -47.1919 -47.1919 -47.1919 -47.1919 -47.1919 -47.1919 -47.1887 -47.1887
   -47.1887 -47.1887 -47.1818 -47.1817 -47.1808 -47.1808 -47.1732 -47.1732
   -47.1722 -47.1722 -47.1533 -47.1533 -47.1517 -47.1517 -47.1099 -47.1099
   -47.1098 -47.1098 -47.1092 -47.1092 -47.1092 -47.1092 -47.0838 -47.0837
   -47.0832 -47.0831 -47.0784 -47.0782 -47.0719 -47.0719 -47.0714 -47.0714
   -47.0680 -47.0680 -47.0680 -47.0680 -47.0674 -47.0674 -47.0674 -47.0674
   -47.0648 -47.0648 -47.0642 -47.0642 -47.0359 -47.0359 -47.0348 -47.0348
   -47.0251 -47.0239 -47.0207 -47.0195 -46.8797 -46.8752 -46.8723 -46.8723
   -46.8701 -46.8700 -46.8629 -46.8629 -46.8627 -46.8627 -46.8600 -46.8600
   -46.8600 -46.8600 -46.8600 -46.8600 -46.8591 -46.8591 -46.8590 -46.8590
   -46.8590 -46.8590 -46.8554 -46.8542 -46.8542 -46.8542 -46.8542 -46.8535
   -46.8535 -46.8535 -46.8534 -46.8534 -46.8527 -46.8527 -46.8502 -46.8501
    -3.8525  -3.0838  -3.0838  -2.8264  -2.2628  -2.2393  -2.1412  -2.1364
    -2.1334  -2.1334  -2.0823  -2.0823  -2.0823  -2.0823  -2.0813  -2.0813
    -1.9795  -1.9727  -1.9726  -1.9470  -1.9470  -1.9470  -1.9470  -1.9447
    -1.9447  -1.7955  -1.7955  -1.7954  -1.7954  -1.7399  -1.7298  -1.7298
    -1.6900  -1.6900  -1.6900  -1.6900  -1.6720  -1.6720  -1.6720  -1.6720
    -1.6719  -1.6719  -1.5864  -1.5864  -1.5863  -1.5863  -1.5766  -1.5096
    -1.5096  -1.5088  -1.5088  -1.5088  -1.5088  -1.5062  -1.5062  -1.4975
    -1.4974  -1.3254  -1.3253  -1.3128  -1.3128  -1.3128  -1.3128  -1.3096
    -1.3096  -1.3062  -1.3062  -1.3051  -1.3051  -1.2610  -1.2610  -1.2610
    -1.2610  -1.1922  -1.1922  -1.1520  -1.1520  -1.1326  -1.0239  -1.0239
    -1.0239  -1.0239  -1.0118  -1.0117  -0.9388  -0.9388  -0.9387  -0.9387
    -0.9112  -0.9112  -0.9095  -0.9095  -0.8845  -0.8845  -0.8833  -0.8833
    -0.8833  -0.8833  -0.7896  -0.7896  -0.6874  -0.6874  -0.6764  -0.6764
    -0.6261  -0.6261  -0.6261  -0.6261  -0.6073  -0.6073  -0.5226  -0.5226
    -0.4737  -0.4737  -0.4615  -0.4615  -0.3880  -0.3832  -0.3832  -0.2987
    -0.2969  -0.2969  -0.2969  -0.2968  -0.2957  -0.2956  -0.2316  -0.1628
    -0.1628  -0.1628  -0.1628  -0.1550  -0.1536  -0.1535  -0.1533  -0.1077
    -0.1076  -0.1076  -0.1076  -0.0812  -0.0811  -0.0770  -0.0769  -0.0682
    -0.0167  -0.0167  -0.0068  -0.0068  -0.0068  -0.0068  -0.0067  -0.0066
     0.0087   0.0087   0.0101   0.0101   0.0423   0.0960   0.0960   0.0960
     0.0961   0.1175   0.1175   0.1179   0.1179   0.1179   0.1179   0.1230
     0.1230   0.1231   0.1231   0.1594   0.1613   0.1842   0.1842   0.1842
     0.1842   0.1854   0.1854   0.1907   0.1908   0.2239   0.2239   0.2294
     0.2310   0.2987   0.2987   0.2987   0.2987   0.3003   0.3003   0.3230
     0.3230   0.3247   0.3248   0.3311   0.3311   0.4019   0.4019   0.4058
     0.4058   0.4058   0.4058   0.5042   0.5042   0.5946   0.5946   0.6832
     0.6832   0.6844   0.6844   0.6844   0.6844   0.6881   0.6881   0.7108
     0.8015   0.8386   0.8386   0.8414   0.8414   0.8414   0.8414   0.8481
     0.8588   0.8588   0.8588   0.8588   0.8602   0.8602   0.8844   0.8844
     0.9393   0.9393   0.9393   0.9393   0.9973   0.9973   1.0087   1.0087
     1.0816   1.0816   1.1051   1.1077   1.1077   1.1100   1.1100   1.1101
     1.1101   1.1242   1.1242   1.1242   1.1242   1.1255   1.1255   1.2217
     1.2218   1.2495   1.2495   1.2505   1.2505   1.2637   1.2638   1.4283
     1.4283   1.4283   1.4283   1.4283   1.4283   1.4440   1.4440   1.4440
     1.4440   1.4464   1.4481   1.4535   1.4535   1.4610   1.4610   1.5635
     1.5635   1.5661   1.5661   1.5662   1.5662   1.5982   1.5983   1.5983
     1.5983   1.6290   1.6290   1.6589   1.6987   1.6987   1.6987   1.6987
     1.7198   1.7198   1.7204   1.7204   1.7209   1.7209   1.7210   1.7210
     1.7219   1.7220   1.7220   1.7220   1.7379   1.7379   1.8501   1.8541
     1.8541   1.8542   1.8542   1.8548   1.8548   1.8570   1.8571   1.8967
     1.8967   1.9125   1.9125   1.9138   1.9138   1.9138   1.9138   1.9249
     1.9249   1.9398   1.9428   2.0027   2.0027   2.0033   2.0033   2.0034
     2.0034   2.0764   2.0764   2.0870   2.0870   2.0871   2.0871   2.0990
     2.0991   2.0991   2.0992   2.1229   2.1229   2.1479   2.1480   2.1544
     2.2166   2.2166   2.2173   2.2180   2.2180   2.2180   2.2180   2.2355
     2.2379   2.2546   2.2547   2.2589   2.2589   2.2759   2.2759   2.2759
     2.2759   2.2981   2.3054   2.3054   2.3054   2.3054   2.3068   2.3069
     2.4098   2.4528   2.4528   2.4529   2.4529   2.4997   2.4997   2.5676
     2.5935   2.8803   3.7087   3.7087   3.8817   4.0058   4.0058   4.0064
     4.0064   4.0065   4.0065   4.2381   4.2726   4.2726   4.5941   4.5941
     4.5941   4.5941   5.1812   5.1812   5.1813   5.1813   5.3802   5.7408
     5.7408   5.8309   5.8310   5.9369   5.9771   6.3190   6.3191   6.3194
     6.3194   6.3195   6.3195   6.3888   6.3888   6.3889   6.3889   7.1284
     7.3027   7.8153   7.8154   7.8443   7.8443   7.9008   7.9702   7.9702
     8.1617   8.1617   8.1617   8.1617   8.2785   8.2786   8.4549   8.4550
     8.4557   8.4557   8.5028   8.5235   8.5235   8.5236   8.5236   8.5236
     8.5236   8.6418   8.6418   9.1210   9.1210   9.1605   9.1606   9.1621
     9.1621   9.1692   9.2743   9.2743   9.2756   9.2757   9.2975   9.6762
     9.7343   9.7343   9.7343   9.7343   9.7693   9.7693   9.8812   9.8813
     9.8814   9.8814   9.8833

          k = 0.0000 0.4330 0.0000 ( 62766 PWs)   bands (ev):

   -47.5374 -47.5287 -47.5286 -47.5226 -47.5176 -47.5176 -47.5148 -47.5148
   -47.5053 -47.5053 -47.5015 -47.4980 -47.4945 -47.4945 -47.4936 -47.4893
   -47.4892 -47.4870 -47.4860 -47.4860 -47.4850 -47.4850 -47.4843 -47.4841
   -47.4804 -47.4804 -47.4795 -47.4752 -47.4752 -47.4745 -47.4475 -47.4446
   -47.4446 -47.4418 -47.4244 -47.4234 -47.4234 -47.4197 -47.4197 -47.4162
   -47.4154 -47.4150 -47.4150 -47.4086 -47.4066 -47.4066 -47.4043 -47.4019
   -47.4018 -47.3953 -47.3953 -47.3874 -47.3874 -47.3836 -47.3795 -47.3788
   -47.3787 -47.3772 -47.3724 -47.3719 -47.3719 -47.3672 -47.3666 -47.3666
   -47.3640 -47.3633 -47.3623 -47.3615 -47.3614 -47.3613 -47.3607 -47.3607
   -47.3574 -47.3574 -47.3573 -47.3513 -47.3512 -47.3509 -47.3509 -47.3486
   -47.3486 -47.3472 -47.3471 -47.3460 -47.3460 -47.3422 -47.3406 -47.3402
   -47.3402 -47.3395 -47.3370 -47.3370 -47.3279 -47.3279 -47.3266 -47.3247
   -47.3246 -47.3175 -47.3175 -47.3103 -47.3103 -47.3089 -47.3062 -47.3052
   -47.2964 -47.2964 -47.2902 -47.2824 -47.2413 -47.2384 -47.2310 -47.2310
   -47.2298 -47.2298 -47.2207 -47.2207 -47.2178 -47.2178 -47.2067 -47.2061
   -47.2008 -47.2008 -47.2001 -47.2001 -47.1988 -47.1981 -47.1934 -47.1934
   -47.1911 -47.1911 -47.1875 -47.1844 -47.1527 -47.1524 -47.1524 -47.1505
   -47.1501 -47.1501 -47.1469 -47.1456 -47.1093 -47.1088 -47.1061 -47.1061
   -47.1053 -47.1053 -47.1014 -47.1014 -47.1011 -47.1011 -47.0968 -47.0958
   -47.0916 -47.0916 -47.0905 -47.0905 -47.0888 -47.0874 -47.0781 -47.0781
   -47.0776 -47.0776 -47.0721 -47.0721 -47.0710 -47.0710 -47.0581 -47.0580
   -47.0579 -47.0579 -47.0518 -47.0511 -47.0399 -47.0399 -47.0396 -47.0396
   -47.0322 -47.0321 -47.0277 -47.0270 -46.8774 -46.8735 -46.8711 -46.8711
   -46.8693 -46.8693 -46.8684 -46.8673 -46.8639 -46.8639 -46.8630 -46.8630
   -46.8594 -46.8594 -46.8586 -46.8586 -46.8574 -46.8570 -46.8566 -46.8566
   -46.8551 -46.8551 -46.8549 -46.8548 -46.8547 -46.8543 -46.8543 -46.8540
   -46.8540 -46.8532 -46.8532 -46.8527 -46.8523 -46.8514 -46.8509 -46.8505
    -3.6974  -2.9477  -2.9477  -2.6770  -2.6241  -2.2383  -2.2383  -2.1405
    -2.1254  -2.0868  -2.0868  -2.0508  -2.0508  -2.0190  -2.0088  -2.0088
    -2.0016  -1.9988  -1.9987  -1.9513  -1.9513  -1.9091  -1.8809  -1.8809
    -1.8265  -1.8265  -1.8179  -1.8179  -1.8054  -1.8054  -1.7743  -1.7743
    -1.7623  -1.6258  -1.6258  -1.6178  -1.6178  -1.6152  -1.6151  -1.6125
    -1.6123  -1.6069  -1.6029  -1.6029  -1.5423  -1.5423  -1.5410  -1.5410
    -1.5143  -1.5051  -1.4669  -1.4669  -1.4414  -1.4402  -1.4320  -1.4320
    -1.4162  -1.4101  -1.4101  -1.4044  -1.4044  -1.3906  -1.3504  -1.3504
    -1.3317  -1.2779  -1.2778  -1.2356  -1.2339  -1.2339  -1.2298  -1.1727
    -1.1707  -1.1707  -1.1334  -1.1334  -1.0930  -1.0830  -1.0830  -1.0420
    -1.0420  -1.0346  -1.0298  -1.0196  -1.0196  -0.9968  -0.9863  -0.9492
    -0.9414  -0.8883  -0.8883  -0.8726  -0.8726  -0.7946  -0.7946  -0.7833
    -0.7714  -0.7646  -0.7320  -0.7320  -0.7063  -0.6978  -0.6978  -0.6915
    -0.6578  -0.6500  -0.6156  -0.6156  -0.5892  -0.5855  -0.5855  -0.5670
    -0.5670  -0.5644  -0.5098  -0.5098  -0.4703  -0.4161  -0.4161  -0.3811
    -0.3811  -0.3717  -0.3716  -0.3113  -0.3113  -0.3021  -0.2840  -0.2765
    -0.2531  -0.2487  -0.2469  -0.2268  -0.2252  -0.2035  -0.1929  -0.1929
    -0.1849  -0.1849  -0.1843  -0.1843  -0.1599  -0.1599  -0.1487  -0.1486
    -0.0846  -0.0846  -0.0746  -0.0736  -0.0707  -0.0603  -0.0569  -0.0077
    -0.0061  -0.0061   0.0277   0.0277   0.0567   0.0669   0.0669   0.0674
     0.0759   0.0759   0.0944   0.1019   0.1019   0.1024   0.1024   0.1523
     0.1523   0.1524   0.1556   0.1558   0.1832   0.1840   0.1922   0.1922
     0.2023   0.2409   0.2409   0.2516   0.2727   0.2727   0.2912   0.3127
     0.3127   0.3147   0.3147   0.3261   0.3406   0.3530   0.3812   0.3841
     0.3841   0.4228   0.4255   0.4255   0.4377   0.4413   0.4413   0.4432
     0.4432   0.4477   0.4478   0.4712   0.4712   0.4811   0.4811   0.4998
     0.5409   0.5410   0.5955   0.6104   0.6151   0.6204   0.6206   0.6248
     0.6248   0.6718   0.6718   0.6983   0.7440   0.7440   0.7462   0.7462
     0.7784   0.7784   0.7954   0.7954   0.8045   0.8158   0.8381   0.8381
     0.8682   0.8706   0.8706   0.8783   0.8938   0.8938   0.8969   0.9264
     0.9264   0.9287   0.9609   0.9609   1.0205   1.0205   1.0427   1.0427
     1.0493   1.0493   1.0727   1.0727   1.1065   1.1363   1.1422   1.1422
     1.1468   1.1600   1.1600   1.1771   1.1920   1.2566   1.2666   1.2666
     1.3067   1.3158   1.3201   1.3201   1.3397   1.3927   1.3927   1.3939
     1.3939   1.4085   1.4085   1.4155   1.4155   1.4181   1.4261   1.4487
     1.4991   1.4991   1.5077   1.5077   1.5146   1.5146   1.5255   1.5289
     1.5481   1.5481   1.5570   1.5723   1.5723   1.5978   1.5978   1.5993
     1.6521   1.6521   1.6778   1.6778   1.6779   1.6779   1.7078   1.7292
     1.7292   1.7330   1.7437   1.7471   1.7861   1.7861   1.7980   1.8260
     1.8260   1.8595   1.8700   1.9095   1.9095   1.9160   1.9181   1.9181
     1.9390   1.9390   1.9445   1.9445   1.9578   1.9578   2.0136   2.0136
     2.0380   2.0516   2.0581   2.0587   2.0587   2.0640   2.0677   2.0677
     2.0734   2.0734   2.0936   2.1233   2.1256   2.1476   2.1477   2.1638
     2.1638   2.1691   2.1761   2.1761   2.1810   2.1870   2.1953   2.1953
     2.2279   2.2479   2.2479   2.2509   2.2509   2.2524   2.2592   2.2592
     2.2806   2.2806   2.2904   2.3074   2.3200   2.3626   2.3834   2.3835
     2.4198   2.4198   2.4235   2.4235   2.4530   2.4848   2.4848   2.6664
     2.6664   2.7653   2.7653   2.9523   2.9547   2.9548   3.1929   3.2902
     3.3909   3.3909   3.5247   3.5247   3.5662   3.8657   3.8657   4.2641
     4.2641   4.3618   4.3618   4.3907   4.4514   4.4515   4.8170   4.8721
     4.8951   4.9272   4.9272   5.2162   5.2162   5.5549   5.5549   5.6582
     5.6582   5.7381   5.9206   5.9206   5.9850   5.9850   6.2780   6.3731
     6.4056   6.5054   6.5054   6.5618   6.5621   6.5621   7.0013   7.0593
     7.0594   7.1043   7.1043   7.1610   7.1799   7.2626   7.4293   7.4749
     7.5066   7.5067   7.6906   7.6906   7.9788   7.9788   7.9963   8.0395
     8.0940   8.0940   8.3369   8.3854   8.4219   8.5549   8.6203   8.6966
     8.6966   8.7817   8.7817   9.0484   9.0484   9.0662   9.0662   9.1474
     9.1536   9.2142   9.2363   9.2363   9.2789   9.2789   9.3785   9.4833
     9.4833   9.5068   9.5427   9.5498   9.5498   9.6876   9.7814   9.8370
     9.8370   9.8820   9.9843

          k = 0.0000-0.8660 0.0000 ( 62844 PWs)   bands (ev):

   -47.5324 -47.5324 -47.5323 -47.5323 -47.5234 -47.5231 -47.5185 -47.5185
   -47.5184 -47.5184 -47.5079 -47.5076 -47.4971 -47.4971 -47.4904 -47.4901
   -47.4888 -47.4887 -47.4886 -47.4885 -47.4879 -47.4879 -47.4795 -47.4795
   -47.4795 -47.4794 -47.4793 -47.4793 -47.4792 -47.4792 -47.4281 -47.4281
   -47.4227 -47.4227 -47.4226 -47.4226 -47.4096 -47.4096 -47.4095 -47.4095
   -47.4089 -47.4089 -47.4088 -47.4088 -47.4087 -47.4086 -47.4058 -47.4056
   -47.3881 -47.3881 -47.3825 -47.3825 -47.3825 -47.3825 -47.3805 -47.3805
   -47.3746 -47.3746 -47.3745 -47.3745 -47.3713 -47.3713 -47.3712 -47.3712
   -47.3709 -47.3708 -47.3632 -47.3630 -47.3609 -47.3609 -47.3609 -47.3609
   -47.3598 -47.3597 -47.3576 -47.3576 -47.3576 -47.3575 -47.3526 -47.3526
   -47.3416 -47.3416 -47.3414 -47.3414 -47.3402 -47.3402 -47.3402 -47.3401
   -47.3400 -47.3400 -47.3400 -47.3400 -47.3296 -47.3296 -47.3290 -47.3288
   -47.3273 -47.3273 -47.3272 -47.3272 -47.3108 -47.3106 -47.3041 -47.3041
   -47.3041 -47.3041 -47.2912 -47.2909 -47.2345 -47.2345 -47.2344 -47.2344
   -47.2324 -47.2324 -47.2324 -47.2323 -47.2272 -47.2270 -47.2266 -47.2264
   -47.2025 -47.2025 -47.2007 -47.2007 -47.1946 -47.1946 -47.1945 -47.1944
   -47.1921 -47.1921 -47.1920 -47.1920 -47.1229 -47.1228 -47.1228 -47.1228
   -47.1152 -47.1152 -47.1152 -47.1152 -47.1147 -47.1147 -47.1147 -47.1147
   -47.1137 -47.1135 -47.1119 -47.1117 -47.0910 -47.0910 -47.0910 -47.0910
   -47.0905 -47.0905 -47.0904 -47.0903 -47.0903 -47.0903 -47.0902 -47.0902
   -47.0894 -47.0894 -47.0893 -47.0893 -47.0663 -47.0661 -47.0648 -47.0646
   -47.0492 -47.0492 -47.0492 -47.0492 -47.0484 -47.0484 -47.0484 -47.0484
   -47.0369 -47.0367 -47.0363 -47.0361 -46.8734 -46.8732 -46.8718 -46.8716
   -46.8686 -46.8686 -46.8684 -46.8684 -46.8667 -46.8667 -46.8665 -46.8665
   -46.8578 -46.8578 -46.8576 -46.8576 -46.8570 -46.8570 -46.8568 -46.8568
   -46.8554 -46.8554 -46.8554 -46.8554 -46.8535 -46.8535 -46.8535 -46.8535
   -46.8532 -46.8532 -46.8528 -46.8528 -46.8524 -46.8522 -46.8522 -46.8520
    -3.2588  -3.2585  -2.5993  -2.5992  -2.5990  -2.5989  -2.2715  -2.2712
    -2.1049  -2.1049  -2.1048  -2.1048  -2.0089  -2.0089  -2.0089  -2.0089
    -1.8882  -1.8882  -1.8882  -1.8882  -1.8738  -1.8735  -1.8232  -1.8229
    -1.7755  -1.7755  -1.7753  -1.7753  -1.7154  -1.7151  -1.6710  -1.6710
    -1.6708  -1.6708  -1.6483  -1.6480  -1.6368  -1.6366  -1.6004  -1.6004
    -1.6004  -1.6004  -1.5908  -1.5907  -1.5905  -1.5905  -1.5814  -1.5814
    -1.5076  -1.5076  -1.4795  -1.4794  -1.4793  -1.4792  -1.4247  -1.4247
    -1.4247  -1.4247  -1.4175  -1.4175  -1.4173  -1.4172  -1.2980  -1.2980
    -1.2948  -1.2946  -1.1956  -1.1956  -1.1954  -1.1954  -1.1930  -1.1929
    -1.1927  -1.1927  -1.0802  -1.0799  -1.0786  -1.0786  -1.0786  -1.0786
    -1.0113  -1.0113  -0.9708  -0.9706  -0.8881  -0.8881  -0.8879  -0.8879
    -0.8847  -0.8847  -0.8846  -0.8846  -0.8553  -0.8553  -0.8551  -0.8551
    -0.8436  -0.8436  -0.7453  -0.7453  -0.6891  -0.6891  -0.6813  -0.6813
    -0.6724  -0.6724  -0.6722  -0.6722  -0.6048  -0.6048  -0.6047  -0.6047
    -0.5634  -0.5633  -0.5438  -0.5437  -0.5436  -0.5436  -0.4673  -0.4673
    -0.4673  -0.4673  -0.4344  -0.4343  -0.4088  -0.4087  -0.3437  -0.3437
    -0.3213  -0.3213  -0.3212  -0.3212  -0.2268  -0.2268  -0.2268  -0.2268
    -0.1563  -0.1562  -0.1440  -0.1440  -0.1439  -0.1438  -0.1377  -0.1377
    -0.1377  -0.1377  -0.1256  -0.1256  -0.0824  -0.0823  -0.0822  -0.0822
    -0.0794  -0.0792  -0.0098  -0.0097  -0.0096  -0.0096   0.0561   0.0561
     0.0628   0.0628   0.0628   0.0628   0.1013   0.1013   0.1446   0.1447
     0.1760   0.1762   0.2216   0.2216   0.2218   0.2218   0.2298   0.2298
     0.2299   0.2299   0.2407   0.2410   0.2707   0.2707   0.2735   0.2736
     0.2752   0.2753   0.2853   0.2853   0.2854   0.2854   0.3500   0.3500
     0.3501   0.3501   0.3525   0.3525   0.3702   0.3702   0.4082   0.4082
     0.4252   0.4252   0.4252   0.4252   0.4568   0.4568   0.5512   0.5512
     0.5513   0.5513   0.5516   0.5516   0.5516   0.5516   0.5589   0.5591
     0.6048   0.6051   0.6194   0.6194   0.6195   0.6195   0.6407   0.6407
     0.6408   0.6408   0.7733   0.7733   0.7733   0.7733   0.8478   0.8478
     0.8771   0.8771   0.8772   0.8772   0.8789   0.8789   0.8790   0.8790
     0.9126   0.9126   0.9126   0.9127   0.9490   0.9491   1.0170   1.0172
     1.0822   1.0822   1.0823   1.0823   1.0968   1.0968   1.1277   1.1277
     1.1277   1.1277   1.1421   1.1421   1.1494   1.1494   1.1871   1.1871
     1.1872   1.1872   1.2898   1.2898   1.2927   1.2927   1.3271   1.3271
     1.3271   1.3271   1.3754   1.3754   1.4080   1.4081   1.4277   1.4277
     1.4278   1.4278   1.5026   1.5027   1.5279   1.5280   1.5384   1.5384
     1.5385   1.5385   1.5428   1.5428   1.5428   1.5428   1.5903   1.5903
     1.5904   1.5904   1.6542   1.6542   1.6542   1.6542   1.6752   1.6752
     1.6752   1.6752   1.6851   1.6851   1.7906   1.7908   1.7973   1.7975
     1.8698   1.8698   1.8699   1.8699   1.8771   1.8771   1.8771   1.8771
     1.9739   1.9740   2.0364   2.0364   2.0364   2.0364   2.0429   2.0429
     2.0430   2.0430   2.0785   2.0785   2.1292   2.1293   2.1540   2.1540
     2.1541   2.1541   2.1595   2.1595   2.1595   2.1595   2.1723   2.1723
     2.1741   2.1741   2.1741   2.1741   2.1831   2.1833   2.2091   2.2091
     2.2091   2.2092   2.3038   2.3038   2.3231   2.3231   2.3231   2.3231
     2.3316   2.3316   2.3317   2.3317   2.3714   2.3716   2.4124   2.4124
     2.4577   2.4577   2.4691   2.4691   2.4691   2.4691   2.9651   2.9651
     2.9652   2.9652   3.1701   3.1701   3.1701   3.1701   3.5467   3.5467
     3.5468   3.5468   4.0279   4.0280   4.4302   4.4302   4.4302   4.4303
     4.6460   4.6460   4.8868   4.8868   4.8869   4.8869   4.9145   4.9145
     4.9147   4.9147   5.1531   5.1532   5.1532   5.1532   5.2502   5.2502
     5.3957   5.3958   5.9326   5.9328   5.9889   5.9890   5.9890   5.9890
     6.5238   6.5238   6.5321   6.5323   6.6243   6.6243   6.6245   6.6245
     7.0072   7.0072   7.0074   7.0074   7.0197   7.0199   7.0648   7.0648
     7.0648   7.0648   7.3967   7.3968   7.6654   7.6654   7.8050   7.8050
     8.3814   8.3814   8.3814   8.3814   8.4550   8.4550   8.4566   8.4566
     8.4622   8.4622   8.4622   8.4622   8.9680   8.9681   9.1724   9.1724
     9.1726   9.1726   9.1992   9.1992   9.1992   9.1992   9.2946   9.2946
     9.2946   9.2946   9.3713   9.3716   9.4924   9.4924   9.4924   9.4924
     9.5805   9.6381   9.6382

          k = 0.2500 0.0000 0.0000 ( 62716 PWs)   bands (ev):

   -47.5392 -47.5239 -47.5112 -47.5112 -47.5108 -47.5083 -47.5082 -47.5008
   -47.5005 -47.5004 -47.4984 -47.4977 -47.4977 -47.4961 -47.4961 -47.4930
   -47.4902 -47.4902 -47.4878 -47.4878 -47.4813 -47.4813 -47.4812 -47.4788
   -47.4787 -47.4776 -47.4735 -47.4734 -47.4705 -47.4705 -47.4599 -47.4570
   -47.4570 -47.4477 -47.4477 -47.4250 -47.4250 -47.4241 -47.4241 -47.4182
   -47.4182 -47.4174 -47.4157 -47.4157 -47.4145 -47.4145 -47.4114 -47.4110
   -47.4106 -47.4106 -47.4057 -47.4014 -47.4014 -47.3820 -47.3819 -47.3765
   -47.3765 -47.3762 -47.3762 -47.3666 -47.3665 -47.3663 -47.3662 -47.3659
   -47.3652 -47.3601 -47.3601 -47.3577 -47.3575 -47.3575 -47.3572 -47.3571
   -47.3570 -47.3562 -47.3534 -47.3534 -47.3528 -47.3528 -47.3505 -47.3505
   -47.3485 -47.3478 -47.3478 -47.3438 -47.3438 -47.3437 -47.3437 -47.3435
   -47.3406 -47.3284 -47.3271 -47.3256 -47.3235 -47.3234 -47.3224 -47.3224
   -47.3213 -47.3178 -47.3177 -47.3146 -47.3106 -47.3093 -47.3043 -47.3006
   -47.2977 -47.2856 -47.2837 -47.2787 -47.2432 -47.2389 -47.2158 -47.2158
   -47.2157 -47.2140 -47.2140 -47.2129 -47.2127 -47.2127 -47.2122 -47.2122
   -47.2023 -47.2023 -47.1995 -47.1994 -47.1942 -47.1942 -47.1926 -47.1926
   -47.1787 -47.1787 -47.1765 -47.1765 -47.1691 -47.1673 -47.1627 -47.1627
   -47.1604 -47.1604 -47.1571 -47.1571 -47.1545 -47.1545 -47.1272 -47.1272
   -47.1257 -47.1257 -47.1113 -47.1102 -47.0944 -47.0944 -47.0938 -47.0938
   -47.0773 -47.0772 -47.0721 -47.0720 -47.0718 -47.0717 -47.0701 -47.0700
   -47.0697 -47.0697 -47.0696 -47.0690 -47.0666 -47.0666 -47.0663 -47.0663
   -47.0606 -47.0584 -47.0576 -47.0574 -47.0431 -47.0420 -47.0288 -47.0286
   -47.0283 -47.0279 -47.0217 -47.0203 -46.8788 -46.8747 -46.8747 -46.8719
   -46.8695 -46.8671 -46.8628 -46.8623 -46.8623 -46.8620 -46.8616 -46.8616
   -46.8614 -46.8614 -46.8606 -46.8606 -46.8587 -46.8586 -46.8575 -46.8575
   -46.8572 -46.8560 -46.8553 -46.8553 -46.8551 -46.8541 -46.8541 -46.8534
   -46.8527 -46.8526 -46.8526 -46.8526 -46.8520 -46.8520 -46.8501 -46.8501
    -3.8003  -3.4013  -2.7758  -2.7305  -2.4018  -2.2199  -2.2177  -2.1752
    -2.1257  -2.0931  -2.0834  -2.0799  -2.0799  -2.0498  -2.0409  -2.0409
    -1.9947  -1.9946  -1.9709  -1.9708  -1.9565  -1.9256  -1.9021  -1.8735
    -1.8735  -1.8574  -1.8573  -1.8416  -1.8307  -1.8306  -1.7867  -1.7509
    -1.7240  -1.7141  -1.7141  -1.7083  -1.7082  -1.6951  -1.6951  -1.6077
    -1.6071  -1.6071  -1.5892  -1.5874  -1.5574  -1.5511  -1.5510  -1.5447
    -1.5446  -1.5361  -1.5360  -1.4650  -1.4650  -1.4194  -1.4193  -1.4172
    -1.4153  -1.4153  -1.3904  -1.3903  -1.3886  -1.3885  -1.3466  -1.3360
    -1.3359  -1.3328  -1.3327  -1.2861  -1.2209  -1.2208  -1.2049  -1.1822
    -1.1822  -1.1747  -1.1747  -1.1469  -1.1469  -1.1387  -1.1387  -1.1143
    -0.9840  -0.9819  -0.9818  -0.9755  -0.9755  -0.9438  -0.9438  -0.9338
    -0.9338  -0.9123  -0.9123  -0.9000  -0.8887  -0.8886  -0.8384  -0.8383
    -0.8340  -0.8340  -0.8124  -0.8124  -0.7779  -0.7214  -0.7214  -0.6512
    -0.6511  -0.6252  -0.6252  -0.5994  -0.5993  -0.5784  -0.5449  -0.5180
    -0.5179  -0.5063  -0.3881  -0.3544  -0.3421  -0.3417  -0.3417  -0.3411
    -0.3406  -0.3405  -0.2893  -0.2893  -0.2719  -0.2711  -0.2341  -0.2209
    -0.2209  -0.1974  -0.1861  -0.1861  -0.1763  -0.1579  -0.1222  -0.1072
    -0.1025  -0.1025  -0.0996  -0.0996  -0.0816  -0.0815  -0.0568  -0.0482
    -0.0481  -0.0405  -0.0255  -0.0254   0.0058   0.0076   0.0077   0.0208
     0.0471   0.0471   0.0516   0.0568   0.0610   0.0610   0.0666   0.0716
     0.0717   0.0985   0.1173   0.1236   0.1288   0.1294   0.1387   0.1388
     0.1403   0.1454   0.1454   0.1605   0.1605   0.1898   0.1911   0.1911
     0.1969   0.1970   0.2036   0.2036   0.2078   0.2134   0.2210   0.2210
     0.2469   0.2606   0.2900   0.2940   0.2940   0.3365   0.3365   0.3513
     0.3514   0.3704   0.3736   0.4106   0.4188   0.4256   0.4257   0.4720
     0.4720   0.4925   0.4926   0.4982   0.5377   0.5683   0.5710   0.5710
     0.5935   0.5935   0.6745   0.6841   0.6842   0.6981   0.6982   0.7110
     0.7569   0.7696   0.7731   0.8079   0.8235   0.8235   0.8361   0.8362
     0.8384   0.8444   0.8542   0.8575   0.8575   0.8894   0.8894   0.9012
     0.9012   0.9167   0.9477   0.9477   0.9503   0.9504   0.9620   0.9620
     0.9955   0.9955   1.0060   1.0131   1.0440   1.0441   1.0598   1.0731
     1.0925   1.1196   1.1196   1.1674   1.1887   1.1892   1.1892   1.1979
     1.1993   1.2587   1.2587   1.2810   1.2810   1.2985   1.2986   1.3052
     1.3052   1.3064   1.3064   1.3196   1.3353   1.3657   1.3658   1.4477
     1.4521   1.4521   1.4535   1.4540   1.4577   1.4761   1.4940   1.4940
     1.4942   1.5034   1.5034   1.5274   1.5276   1.5297   1.5298   1.5825
     1.5991   1.5991   1.6322   1.6322   1.6327   1.6359   1.6359   1.6558
     1.6825   1.6826   1.7039   1.7056   1.7057   1.7274   1.7274   1.7316
     1.7317   1.7360   1.7360   1.7733   1.7733   1.8143   1.8238   1.8307
     1.8313   1.8313   1.8805   1.8805   1.8894   1.9001   1.9001   1.9142
     1.9143   1.9164   1.9202   1.9330   1.9405   1.9547   1.9691   1.9691
     1.9751   2.0077   2.0077   2.0144   2.0145   2.0578   2.0579   2.0785
     2.0786   2.0955   2.0955   2.1023   2.1023   2.1210   2.1211   2.1301
     2.1418   2.1549   2.1550   2.1565   2.1566   2.1613   2.1767   2.1845
     2.1963   2.1963   2.2246   2.2359   2.2359   2.2398   2.2431   2.2432
     2.2507   2.2507   2.2521   2.2570   2.2689   2.2726   2.2726   2.2863
     2.3083   2.3083   2.3194   2.3535   2.3699   2.3699   2.3749   2.4157
     2.4157   2.4231   2.4231   2.5229   2.5504   2.7404   2.7404   2.8085
     2.9368   3.0420   3.5452   3.7163   3.7164   3.7763   3.7764   3.8143
     3.8253   3.8254   3.8644   4.0728   4.2903   4.2904   4.3446   4.3447
     4.5440   4.7525   4.7699   5.1036   5.4680   5.4681   5.5482   5.5667
     5.5668   5.7779   5.8582   5.8583   6.0916   6.0917   6.1293   6.1294
     6.4128   6.6398   6.6399   6.7581   6.8383   7.1731   7.2872   7.2872
     7.3451   7.3648   7.3649   7.5310   7.5856   7.5857   7.6803   7.8137
     7.8598   7.8598   7.9470   8.1047   8.1047   8.2143   8.2143   8.2468
     8.3174   8.3387   8.5036   8.5036   8.5422   8.6143   8.6143   8.8525
     8.9125   8.9125   9.0585   9.1828   9.1828   9.1906   9.2413   9.3010
     9.3134   9.3134   9.3155   9.3187   9.3187   9.4057   9.4642   9.5047
     9.5048   9.6182   9.6183   9.6677   9.6677   9.7103   9.7103   9.7206
     9.7894   9.7894   9.9711

          k = 0.2500 0.4330 0.0000 ( 62758 PWs)   bands (ev):

   -47.5344 -47.5324 -47.5260 -47.5212 -47.5190 -47.5186 -47.5113 -47.5079
   -47.5073 -47.5058 -47.5017 -47.4995 -47.4985 -47.4982 -47.4969 -47.4965
   -47.4902 -47.4893 -47.4881 -47.4878 -47.4874 -47.4870 -47.4795 -47.4793
   -47.4793 -47.4783 -47.4766 -47.4764 -47.4761 -47.4591 -47.4582 -47.4407
   -47.4387 -47.4316 -47.4264 -47.4227 -47.4223 -47.4177 -47.4169 -47.4138
   -47.4128 -47.4124 -47.4122 -47.4119 -47.4105 -47.4099 -47.4097 -47.4093
   -47.4081 -47.4048 -47.3902 -47.3881 -47.3826 -47.3815 -47.3809 -47.3787
   -47.3783 -47.3749 -47.3735 -47.3716 -47.3713 -47.3708 -47.3701 -47.3694
   -47.3644 -47.3635 -47.3623 -47.3621 -47.3612 -47.3610 -47.3603 -47.3601
   -47.3590 -47.3583 -47.3579 -47.3537 -47.3531 -47.3525 -47.3525 -47.3513
   -47.3448 -47.3444 -47.3433 -47.3421 -47.3417 -47.3412 -47.3401 -47.3398
   -47.3386 -47.3359 -47.3321 -47.3304 -47.3303 -47.3298 -47.3282 -47.3270
   -47.3267 -47.3191 -47.3181 -47.3133 -47.3098 -47.3055 -47.3055 -47.3051
   -47.3033 -47.2945 -47.2896 -47.2832 -47.2377 -47.2355 -47.2347 -47.2326
   -47.2282 -47.2249 -47.2240 -47.2234 -47.2138 -47.2112 -47.2103 -47.2078
   -47.2077 -47.2065 -47.2058 -47.2041 -47.2039 -47.2028 -47.1933 -47.1908
   -47.1907 -47.1884 -47.1699 -47.1678 -47.1676 -47.1655 -47.1464 -47.1452
   -47.1427 -47.1415 -47.1380 -47.1360 -47.1196 -47.1195 -47.1168 -47.1167
   -47.1162 -47.1150 -47.1129 -47.1124 -47.0941 -47.0940 -47.0917 -47.0916
   -47.0907 -47.0891 -47.0876 -47.0860 -47.0820 -47.0812 -47.0784 -47.0776
   -47.0771 -47.0768 -47.0695 -47.0681 -47.0667 -47.0657 -47.0644 -47.0634
   -47.0533 -47.0530 -47.0514 -47.0507 -47.0477 -47.0469 -47.0377 -47.0375
   -47.0334 -47.0328 -47.0275 -47.0269 -46.8775 -46.8734 -46.8733 -46.8717
   -46.8685 -46.8685 -46.8666 -46.8666 -46.8659 -46.8651 -46.8621 -46.8621
   -46.8606 -46.8606 -46.8577 -46.8577 -46.8569 -46.8569 -46.8568 -46.8567
   -46.8559 -46.8558 -46.8557 -46.8554 -46.8554 -46.8535 -46.8535 -46.8534
   -46.8531 -46.8528 -46.8524 -46.8521 -46.8520 -46.8519 -46.8504 -46.8504
    -3.6468  -3.2585  -2.6290  -2.5993  -2.5988  -2.4033  -2.2710  -2.1589
    -2.1049  -2.1035  -2.1024  -2.1004  -2.0422  -2.0414  -2.0089  -2.0084
    -1.9596  -1.9587  -1.9575  -1.9341  -1.9328  -1.8892  -1.8882  -1.8882
    -1.8729  -1.8224  -1.8049  -1.7755  -1.7745  -1.7300  -1.7298  -1.7154
    -1.7080  -1.7061  -1.6821  -1.6712  -1.6707  -1.6501  -1.6358  -1.6004
    -1.5993  -1.5980  -1.5969  -1.5901  -1.5897  -1.5821  -1.5540  -1.5186
    -1.5175  -1.5087  -1.5065  -1.4919  -1.4888  -1.4795  -1.4774  -1.4247
    -1.4221  -1.4196  -1.4194  -1.4186  -1.4182  -1.2977  -1.2974  -1.2828
    -1.2806  -1.2800  -1.2787  -1.2429  -1.2411  -1.1966  -1.1949  -1.1942
    -1.1938  -1.1746  -1.1291  -1.0816  -1.0803  -1.0787  -1.0633  -1.0607
    -1.0605  -1.0377  -1.0372  -1.0101  -0.9696  -0.9696  -0.9684  -0.9372
    -0.9364  -0.8894  -0.8889  -0.8844  -0.8834  -0.8559  -0.8557  -0.8436
    -0.8008  -0.8003  -0.7453  -0.7092  -0.7088  -0.6899  -0.6805  -0.6744
    -0.6741  -0.6738  -0.6730  -0.6712  -0.6055  -0.6042  -0.5633  -0.5436
    -0.5432  -0.4831  -0.4676  -0.4674  -0.4334  -0.4202  -0.4200  -0.4083
    -0.3916  -0.3904  -0.3748  -0.3455  -0.3431  -0.3232  -0.3224  -0.3022
    -0.3013  -0.2638  -0.2451  -0.2368  -0.2361  -0.2265  -0.2245  -0.2038
    -0.1583  -0.1456  -0.1455  -0.1380  -0.1378  -0.1245  -0.1119  -0.0820
    -0.0808  -0.0779  -0.0736  -0.0715  -0.0676  -0.0672  -0.0251  -0.0120
    -0.0116   0.0141   0.0564   0.0626   0.0634   0.0714   0.0788   0.0808
     0.0892   0.0937   0.0939   0.1013   0.1057   0.1068   0.1393   0.1395
     0.1460   0.1731   0.1749   0.1755   0.1837   0.2192   0.2202   0.2289
     0.2294   0.2377   0.2381   0.2392   0.2711   0.2738   0.2749   0.2798
     0.2854   0.2863   0.2903   0.3208   0.3221   0.3492   0.3497   0.3519
     0.3524   0.3719   0.3820   0.3906   0.3931   0.4100   0.4243   0.4275
     0.4579   0.5480   0.5507   0.5516   0.5519   0.5533   0.5570   0.5571
     0.5578   0.5637   0.5656   0.5947   0.5951   0.5954   0.5979   0.6029
     0.6198   0.6203   0.6403   0.6415   0.6483   0.6505   0.6611   0.6614
     0.6664   0.7730   0.7737   0.7761   0.8217   0.8494   0.8765   0.8780
     0.8781   0.8801   0.8952   0.8966   0.9127   0.9135   0.9407   0.9409
     0.9445   0.9488   0.9608   0.9614   0.9804   1.0171   1.0562   1.0574
     1.0597   1.0822   1.0825   1.0953   1.1275   1.1300   1.1361   1.1363
     1.1426   1.1445   1.1490   1.1600   1.1783   1.1869   1.1882   1.2916
     1.2931   1.2977   1.2983   1.3262   1.3263   1.3270   1.3293   1.3708
     1.3758   1.4066   1.4173   1.4178   1.4273   1.4273   1.4580   1.4580
     1.4588   1.5024   1.5125   1.5155   1.5164   1.5283   1.5382   1.5405
     1.5431   1.5442   1.5557   1.5893   1.5902   1.6389   1.6478   1.6511
     1.6511   1.6532   1.6538   1.6540   1.6750   1.6766   1.6850   1.6909
     1.7007   1.7007   1.7055   1.7055   1.7687   1.7689   1.7909   1.7995
     1.8361   1.8362   1.8695   1.8709   1.8762   1.8770   1.9075   1.9227
     1.9234   1.9345   1.9751   2.0365   2.0372   2.0427   2.0442   2.0445
     2.0651   2.0677   2.0688   2.0698   2.0699   2.0769   2.0852   2.0863
     2.0873   2.1303   2.1401   2.1495   2.1518   2.1529   2.1540   2.1585
     2.1603   2.1621   2.1642   2.1730   2.1740   2.1770   2.1849   2.1913
     2.1915   2.2095   2.2107   2.2212   2.2220   2.2396   2.2755   2.2974
     2.3010   2.3171   2.3183   2.3230   2.3238   2.3300   2.3307   2.3442
     2.3445   2.3725   2.3947   2.4121   2.4536   2.4564   2.4675   2.4675
     2.9650   2.9655   3.0273   3.0304   3.1076   3.1530   3.1702   3.1733
     3.3929   3.4675   3.4703   3.5468   3.5495   3.7450   3.7453   3.8346
     4.0275   4.4280   4.4291   4.5279   4.6435   4.8702   4.8714   4.8870
     4.8881   4.9144   4.9149   5.1099   5.1509   5.1520   5.2478   5.2546
     5.3955   5.9343   5.9422   5.9424   5.9875   5.9887   6.3923   6.3942
     6.5224   6.5338   6.6244   6.6245   7.0074   7.0079   7.0211   7.0631
     7.0637   7.0638   7.0650   7.1077   7.1212   7.1232   7.1332   7.3073
     7.3976   7.4713   7.6654   7.8050   7.9924   7.9924   8.0858   8.1461
     8.1477   8.3814   8.3814   8.4543   8.4566   8.4622   8.4622   8.6591
     8.7374   8.7801   8.7804   8.7841   8.9680   9.1724   9.1724   9.1992
     9.1992   9.2943   9.2946   9.3616   9.3618   9.3718   9.4279   9.4279
     9.4495   9.4495   9.4560   9.4922   9.4924   9.5647   9.5805   9.5805
     9.6382   9.7174   9.8832

          k = 0.2500-0.8660 0.0000 ( 62800 PWs)   bands (ev):

   -47.5386 -47.5386 -47.5248 -47.5248 -47.5234 -47.5234 -47.5217 -47.5215
   -47.5091 -47.5091 -47.5055 -47.5052 -47.5033 -47.5031 -47.5007 -47.5007
   -47.4921 -47.4919 -47.4913 -47.4913 -47.4892 -47.4890 -47.4837 -47.4834
   -47.4779 -47.4777 -47.4749 -47.4747 -47.4621 -47.4619 -47.4262 -47.4261
   -47.4248 -47.4247 -47.4208 -47.4207 -47.4197 -47.4195 -47.4122 -47.4121
   -47.4106 -47.4106 -47.4088 -47.4088 -47.4012 -47.4012 -47.3946 -47.3945
   -47.3931 -47.3931 -47.3916 -47.3916 -47.3895 -47.3895 -47.3833 -47.3833
   -47.3751 -47.3751 -47.3747 -47.3747 -47.3728 -47.3727 -47.3648 -47.3647
   -47.3643 -47.3643 -47.3621 -47.3620 -47.3590 -47.3590 -47.3583 -47.3582
   -47.3575 -47.3575 -47.3546 -47.3545 -47.3529 -47.3529 -47.3517 -47.3517
   -47.3493 -47.3493 -47.3465 -47.3465 -47.3446 -47.3443 -47.3381 -47.3380
   -47.3346 -47.3345 -47.3334 -47.3334 -47.3332 -47.3332 -47.3318 -47.3317
   -47.3277 -47.3275 -47.3219 -47.3219 -47.3137 -47.3135 -47.3134 -47.3133
   -47.2973 -47.2972 -47.2910 -47.2908 -47.2407 -47.2407 -47.2380 -47.2379
   -47.2254 -47.2254 -47.2250 -47.2248 -47.2241 -47.2239 -47.2236 -47.2236
   -47.2096 -47.2094 -47.2072 -47.2070 -47.2056 -47.2055 -47.2047 -47.2047
   -47.1756 -47.1754 -47.1732 -47.1731 -47.1355 -47.1354 -47.1345 -47.1344
   -47.1204 -47.1204 -47.1188 -47.1188 -47.1119 -47.1117 -47.1111 -47.1109
   -47.1002 -47.1000 -47.0998 -47.0996 -47.0994 -47.0994 -47.0993 -47.0992
   -47.0963 -47.0963 -47.0957 -47.0957 -47.0841 -47.0841 -47.0840 -47.0840
   -47.0792 -47.0791 -47.0785 -47.0784 -47.0699 -47.0698 -47.0685 -47.0684
   -47.0577 -47.0576 -47.0574 -47.0573 -47.0426 -47.0426 -47.0423 -47.0423
   -47.0367 -47.0365 -47.0364 -47.0363 -46.8731 -46.8729 -46.8708 -46.8706
   -46.8704 -46.8702 -46.8687 -46.8685 -46.8655 -46.8653 -46.8642 -46.8640
   -46.8604 -46.8602 -46.8596 -46.8594 -46.8557 -46.8555 -46.8549 -46.8549
   -46.8547 -46.8547 -46.8544 -46.8542 -46.8537 -46.8536 -46.8535 -46.8534
   -46.8534 -46.8534 -46.8534 -46.8533 -46.8533 -46.8532 -46.8527 -46.8526
    -3.2147  -3.2144  -2.8747  -2.8744  -2.2831  -2.2828  -2.2364  -2.2361
    -2.2061  -2.2061  -2.1043  -2.1043  -1.9743  -1.9740  -1.9566  -1.9566
    -1.9554  -1.9553  -1.8635  -1.8635  -1.8536  -1.8534  -1.7991  -1.7989
    -1.7672  -1.7672  -1.7474  -1.7471  -1.7107  -1.7104  -1.7098  -1.7095
    -1.7075  -1.7075  -1.6636  -1.6634  -1.6548  -1.6548  -1.6323  -1.6320
    -1.6201  -1.6198  -1.6039  -1.6037  -1.5854  -1.5852  -1.5469  -1.5469
[...]
     0.6683   0.6684   0.6685   0.6686   0.7269   0.7269   0.8084   0.8084
     0.8085   0.8085   0.8180   0.8180   0.8181   0.8181   0.8183   0.8184
     0.8184   0.8185   0.8745   0.8746   0.8746   0.8746   0.9235   0.9235
     0.9235   0.9235   0.9236   0.9237   0.9237   0.9237   0.9723   0.9723
     0.9724   0.9725   1.0573   1.0573   1.0574   1.0575   1.0618   1.0618
     1.1183   1.1183   1.1184   1.1184   1.1193   1.1193   1.1194   1.1194
     1.1352   1.1353   1.1353   1.1353   1.2034   1.2034   1.2035   1.2035
     1.4368   1.4368   1.4369   1.4369   1.4374   1.4376   1.4376   1.4377
     1.4508   1.4508   1.4508   1.4509   1.4519   1.4520   1.4520   1.4521
     1.6235   1.6235   1.6236   1.6236   1.6236   1.6236   1.6237   1.6237
     1.6238   1.6238   1.6239   1.6239   1.6389   1.6389   1.7125   1.7125
     1.7126   1.7126   1.7130   1.7131   1.7131   1.7132   1.7277   1.7277
     1.7278   1.7278   1.8893   1.8893   1.9129   1.9129   1.9129   1.9129
     1.9129   1.9129   1.9130   1.9131   2.1310   2.1310   2.1311   2.1311
     2.1325   2.1325   2.1326   2.1326   2.1553   2.1553   2.1554   2.1554
     2.1761   2.1761   2.1762   2.1762   2.1842   2.1842   2.2384   2.2384
     2.2587   2.2587   2.2626   2.2627   2.2627   2.2628   2.3002   2.3002
     2.3002   2.3002   2.3028   2.3028   2.3029   2.3029   2.3132   2.3132
     2.3133   2.3134   2.4135   2.4135   2.4818   2.4818   2.4819   2.4819
     2.4831   2.4831   2.4831   2.4831   2.5473   2.5474   2.5474   2.5474
     2.5729   2.5729   2.6102   2.6102   3.7886   3.7886   3.7887   3.7887
     4.2065   4.2065   4.3546   4.3547   4.3548   4.3549   4.5725   4.5725
     4.5726   4.5726   4.5751   4.5751   4.5751   4.5752   5.1896   5.1897
     5.1898   5.1898   5.1918   5.1919   5.1919   5.1919   5.4011   5.4011
     5.8482   5.8483   5.8483   5.8485   5.9612   5.9612   5.9614   5.9614
     5.9780   5.9780   6.0007   6.0007   6.4366   6.4367   6.4368   6.4369
     6.4385   6.4385   6.4385   6.4385   7.8502   7.8502   7.8502   7.8502
     7.9167   7.9167   7.9169   7.9169   7.9901   7.9901   7.9902   7.9902
     8.2553   8.2554   8.2555   8.2557   8.2559   8.2560   8.2560   8.2560
     8.6465   8.6465   8.6466   8.6466   9.1449   9.1449   9.1449   9.1449
     9.2094   9.2094   9.2828   9.2828   9.2828   9.2828   9.3078   9.3078
     9.3140   9.3140   9.3141   9.3141   9.7596   9.7597   9.7599   9.7599
     9.7599   9.7599   9.7600

     the Fermi energy is     2.3276 ev

!    total energy              =  -14303.14489504 Ry
     estimated scf accuracy    <          7.3E-09 Ry
     smearing contrib. (-TS)   =      -0.07823431 Ry
     internal energy E=F+TS    =  -14303.06666073 Ry

     The total energy is F=E-TS. E is the sum of the following terms:
     one-electron contribution = -148898.56199237 Ry
     hartree contribution      =   74764.22654634 Ry
     xc contribution           =   -2253.57604150 Ry
     ewald contribution        =   62084.84482680 Ry

     convergence has been achieved in  32 iterations

     negative rho (up, down):  5.738E+00 0.000E+00

     Forces acting on atoms (cartesian axes, Ry/au):

     atom    1 type  1   force =    -0.00000765    0.00000000    0.00026741
     atom    2 type  1   force =     0.00003577    0.00000000   -0.00023458
     atom    3 type  1   force =    -0.00000762    0.00000872    0.00027287
     atom    4 type  1   force =     0.00003624    0.00000775   -0.00024050
     atom    5 type  1   force =    -0.00000762   -0.00000872    0.00027287
     atom    6 type  1   force =     0.00003624   -0.00000775   -0.00024050
     atom    7 type  1   force =    -0.00005459    0.00000000    0.00026308
     atom    8 type  1   force =     0.00004385    0.00000000   -0.00025116
     atom    9 type  1   force =    -0.00005500    0.00000994    0.00026893
     atom   10 type  1   force =     0.00004387    0.00000711   -0.00025666
     atom   11 type  1   force =    -0.00005500   -0.00000994    0.00026893
     atom   12 type  1   force =     0.00004387   -0.00000711   -0.00025666
     atom   13 type  1   force =    -0.00005931    0.00000000    0.00023871
     atom   14 type  1   force =     0.00004346    0.00000000   -0.00023854
     atom   15 type  1   force =    -0.00006045    0.00000871    0.00024384
     atom   16 type  1   force =     0.00004412    0.00000696   -0.00024382
     atom   17 type  1   force =    -0.00006045   -0.00000871    0.00024384
     atom   18 type  1   force =     0.00004412   -0.00000696   -0.00024382
     atom   19 type  1   force =     0.00000332    0.00001113   -0.00065413
     atom   20 type  1   force =     0.00000361    0.00000000   -0.00065371
     atom   21 type  1   force =     0.00000332   -0.00001113   -0.00065413
     atom   22 type  1   force =     0.00001035    0.00000997   -0.00063875
     atom   23 type  1   force =     0.00001030    0.00000000   -0.00063868
     atom   24 type  1   force =     0.00001035   -0.00000997   -0.00063875
     atom   25 type  1   force =     0.00004048    0.00001019   -0.00064024
     atom   26 type  1   force =     0.00004135    0.00000000   -0.00063899
     atom   27 type  1   force =     0.00004048   -0.00001019   -0.00064024
     atom   28 type  1   force =     0.00003001    0.00000000   -0.00066226
     atom   29 type  1   force =     0.00003079    0.00001121   -0.00066135
     atom   30 type  1   force =     0.00003079   -0.00001121   -0.00066135
     atom   31 type  1   force =    -0.00001115    0.00000000   -0.00064176
     atom   32 type  1   force =    -0.00001149    0.00001102   -0.00064113
     atom   33 type  1   force =    -0.00001149   -0.00001102   -0.00064113
     atom   34 type  1   force =     0.00003523    0.00000000   -0.00062901
     atom   35 type  1   force =     0.00003562    0.00001040   -0.00062786
     atom   36 type  1   force =     0.00003562   -0.00001040   -0.00062786
     atom   37 type  1   force =    -0.00000380    0.00000000    0.00061672
     atom   38 type  1   force =    -0.00000413    0.00001067    0.00061440
     atom   39 type  1   force =    -0.00000413   -0.00001067    0.00061440
     atom   40 type  1   force =    -0.00003263    0.00000000    0.00064121
     atom   41 type  1   force =    -0.00003303    0.00000962    0.00063884
     atom   42 type  1   force =    -0.00003303   -0.00000962    0.00063884
     atom   43 type  1   force =    -0.00001755    0.00000000    0.00063282
     atom   44 type  1   force =    -0.00001756    0.00001013    0.00063099
     atom   45 type  1   force =    -0.00001756   -0.00001013    0.00063099
     atom   46 type  1   force =    -0.00001759    0.00001022    0.00061687
     atom   47 type  1   force =    -0.00001772    0.00000000    0.00061551
     atom   48 type  1   force =    -0.00001759   -0.00001022    0.00061687
     atom   49 type  1   force =    -0.00002579    0.00000958    0.00063237
     atom   50 type  1   force =    -0.00002635    0.00000000    0.00062990
     atom   51 type  1   force =    -0.00002579   -0.00000958    0.00063237
     atom   52 type  1   force =    -0.00000913    0.00000946    0.00064009
     atom   53 type  1   force =    -0.00000911    0.00000000    0.00063835
     atom   54 type  1   force =    -0.00000913   -0.00000946    0.00064009
     atom   55 type  1   force =    -0.00002983    0.00000927    0.00027656
     atom   56 type  1   force =     0.00004785    0.00000734   -0.00024050
     atom   57 type  1   force =    -0.00002948    0.00000000    0.00028247
     atom   58 type  1   force =     0.00004788    0.00000000   -0.00024657
     atom   59 type  1   force =    -0.00002983   -0.00000927    0.00027656
     atom   60 type  1   force =     0.00004785   -0.00000734   -0.00024050
     atom   61 type  1   force =    -0.00006401    0.00000923    0.00024406
     atom   62 type  1   force =     0.00002252    0.00000660   -0.00024811
     atom   63 type  1   force =    -0.00006509    0.00000000    0.00024968
     atom   64 type  1   force =     0.00002298    0.00000000   -0.00025368
     atom   65 type  1   force =    -0.00006401   -0.00000923    0.00024406
     atom   66 type  1   force =     0.00002252   -0.00000660   -0.00024811
     atom   67 type  1   force =    -0.00003029    0.00000830    0.00025441
     atom   68 type  1   force =     0.00005040    0.00000716   -0.00024113
     atom   69 type  1   force =    -0.00003075    0.00000000    0.00025991
     atom   70 type  1   force =     0.00005150    0.00000000   -0.00024690
     atom   71 type  1   force =    -0.00003029   -0.00000830    0.00025441
     atom   72 type  1   force =     0.00005040   -0.00000716   -0.00024113

     Total force =     0.004121     Total SCF correction =     0.000598
     SCF correction compared to forces is large: reduce conv_thr to get better values


     Computing stress (Cartesian axis) and pressure


     negative rho (up, down):  5.738E+00 0.000E+00
          total   stress  (Ry/bohr**3)                   (kbar)     P=     -134.18
  -0.00096474   0.00000000   0.00000062         -141.92        0.00        0.09
   0.00000000  -0.00096148   0.00000000            0.00     -141.44        0.00
   0.00000062   0.00000000  -0.00081028            0.09        0.00     -119.20


     bfgs converged in   9 scf cycles and   8 bfgs steps
     (criteria: energy <  1.0E-04 Ry, force <  1.0E-03 Ry/Bohr)

     End of BFGS Geometry Optimization

     Final energy   =  -14303.1448950429 Ry

     File /users/aafshar4/scratch/Pd_relax.bfgs deleted, as requested
Begin final coordinates

ATOMIC_POSITIONS (angstrom)
Pd           -0.0003493625        0.0000000000        0.0808826494
Pd            0.0000354513        0.0000000000        6.8316059340
Pd           -0.0003568623        2.8220290009        0.0808774648
Pd            0.0000465810        2.8220323290        6.8316132368
Pd           -0.0003568623        5.6441599991        0.0808774648
Pd            0.0000465810        5.6441566710        6.8316132368
Pd            4.8878964232        0.0000000000        0.0810000960
Pd            4.8881339784        0.0000000000        6.8316336001
Pd            4.8878900784        2.8220254628        0.0809972798
Pd            4.8881462746        2.8220342391        6.8316421525
Pd            4.8878900784        5.6441635372        0.0809972798
Pd            4.8881462746        5.6441547609        6.8316421525
Pd            9.7759211470        0.0000000000        0.0809624918
Pd            9.7760836064        0.0000000000        6.8316508327
Pd            9.7759172656        2.8220292509        0.0809596327
Pd            9.7760934426        2.8220346429        6.8316586190
Pd            9.7759172656        5.6441597491        0.0809596327
Pd            9.7760934426        5.6441543571        6.8316586190
Pd            4.0728623912        1.4109994469        2.3418233142
Pd            4.0728589914        4.2330950000        2.3418190211
Pd            4.0728623912        7.0551905531        2.3418233142
Pd            8.9608860938        1.4110024361        2.3417815143
Pd            8.9608837779        4.2330950000        2.3417789899
Pd            8.9608860938        7.0551875639        2.3417815143
Pd           13.8486079954        1.4110012930        2.3417488868
Pd           13.8486031512        4.2330950000        2.3417419621
Pd           13.8486079954        7.0551887070        2.3417488868
Pd            1.6287308856        0.0000000000        2.3418157266
Pd            1.6287271320        2.8220281683        2.3418096389
Pd            1.6287271320        5.6441608317        2.3418096389
Pd            6.5169604558        0.0000000000        2.3417998576
Pd            6.5169593494        2.8220294242        2.3417952495
Pd            6.5169593494        5.6441595758        2.3417952495
Pd           11.4047272459        0.0000000000        2.3417383105
Pd           11.4047248176        2.8220303753        2.3417324356
Pd           11.4047248176        5.6441586247        2.3417324356
Pd            3.2590523963        0.0000000000        4.5708948362
Pd            3.2590592568        2.8220297934        4.5709023309
Pd            3.2590592568        5.6441592066        4.5709023309
Pd            8.1471827151        0.0000000000        4.5708428932
Pd            8.1471895789        2.8220326987        4.5708514663
Pd            8.1471895789        5.6441563013        4.5708514663
Pd           13.0349449727        0.0000000000        4.5708504001
Pd           13.0349517701        2.8220311603        4.5708567894
Pd           13.0349517701        5.6441578397        4.5708567894
Pd            0.8150314448        1.4110010422        4.5708825140
Pd            0.8150384656        4.2330950000        4.5708864518
Pd            0.8150314448        7.0551889578        4.5708825140
Pd            5.7031770624        1.4110031686        4.5708649062
Pd            5.7031842062        4.2330950000        4.5708722415
Pd            5.7031770624        7.0551868314        4.5708649062
Pd           10.5910370222        1.4110032459        4.5708480447
Pd           10.5910434007        4.2330950000        4.5708536625
Pd           10.5910370222        7.0551867541        4.5708480447
Pd            2.4437251910        1.4109978568        0.0809522103
Pd            2.4440424386        1.4110038536        6.8316244765
Pd            2.4437152340        4.2330950000        0.0809482409
Pd            2.4440534092        4.2330950000        6.8316327238
Pd            2.4437251910        7.0551921432        0.0809522103
Pd            2.4440424386        7.0551861464        6.8316244765
Pd            7.3319878182        1.4109980190        0.0810187384
Pd            7.3322329101        1.4110063087        6.8316352595
Pd            7.3319825599        4.2330950000        0.0810167409
Pd            7.3322421825        4.2330950000        6.8316449255
Pd            7.3319878182        7.0551919810        0.0810187384
Pd            7.3322329101        7.0551836913        6.8316352595
Pd           12.2196974635        1.4110007599        0.0808661474
Pd           12.2199371759        1.4110042388        6.8316379931
Pd           12.2196902695        4.2330950000        0.0808607536
Pd           12.2199440529        4.2330950000        6.8316460548
Pd           12.2196974635        7.0551892401        0.0808661474
Pd           12.2199371759        7.0551857612        6.8316379931
End final coordinates



     Writing output data file /users/aafshar4/scratch/Pd_relax.save/
 
     init_run     :     69.18s CPU     69.52s WALL (       1 calls)
     electrons    :  27833.05s CPU  28503.97s WALL (       9 calls)
     update_pot   :      3.19s CPU      3.21s WALL (       8 calls)
     forces       :    113.56s CPU    114.22s WALL (       9 calls)
     stress       :    727.69s CPU    755.75s WALL (       9 calls)

     Called by init_run:
     wfcinit      :     67.04s CPU     67.32s WALL (       1 calls)
     potinit      :      0.15s CPU      0.16s WALL (       1 calls)
     hinit0       :      0.18s CPU      0.18s WALL (       1 calls)

     Called by electrons:
     c_bands      :  25025.27s CPU  25590.32s WALL (     521 calls)
     sum_band     :   2645.40s CPU   2727.13s WALL (     521 calls)
     v_of_rho     :     49.11s CPU     50.87s WALL (     529 calls)
     newd         :     74.06s CPU     89.50s WALL (     529 calls)
     mix_rho      :     32.35s CPU     38.32s WALL (     521 calls)

     Called by c_bands:
     init_us_2    :     41.59s CPU     42.01s WALL (    9549 calls)
     cegterg      :  24662.92s CPU  25219.69s WALL (    4689 calls)

     Called by *egterg:
     cdiaghg      :   6527.56s CPU   6689.06s WALL (   12312 calls)
     h_psi        :   9860.79s CPU  10133.71s WALL (   12402 calls)
     s_psi        :    959.43s CPU    963.77s WALL (   12402 calls)
     g_psi        :      9.69s CPU      9.75s WALL (    7704 calls)

     Called by h_psi:
     h_psi:calbec :   1626.85s CPU   1653.97s WALL (   12402 calls)
     vloc_psi     :   7260.20s CPU   7463.48s WALL (   12402 calls)
     add_vuspsi   :    958.22s CPU    979.81s WALL (   12402 calls)

     General routines
     calbec       :   2648.90s CPU   2692.33s WALL (   17496 calls)
     fft          :     56.12s CPU     58.66s WALL (    7093 calls)
     ffts         :      1.31s CPU      1.37s WALL (    1050 calls)
     fftw         :   8707.07s CPU   8956.85s WALL (16617669 calls)
     interpolate  :      4.41s CPU      4.51s WALL (     529 calls)
 
     Parallel routines
     fft_scatt_xy :    322.62s CPU    327.16s WALL (16625812 calls)
     fft_scatt_yz :   7248.38s CPU   7480.24s WALL (16625812 calls)
 
     PWSCF        :      7h59m CPU      8h11m WALL

 
   This run was terminated on:   4: 6:19   4Sep2022            

=------------------------------------------------------------------------------=
   JOB DONE.
=------------------------------------------------------------------------------=
[1662278779.119892] [node1343:216203:0]          mpool.c:43   UCX  WARN  object 0x3948a40 was not returned to mpool ucp_requests
[1662278779.119905] [node1343:216203:0]          mpool.c:43   UCX  WARN  object 0x394dc80 was not returned to mpool ucp_requests
[1662278779.139064] [node1340:49994:0]          mpool.c:43   UCX  WARN  object 0x45e7f80 was not returned to mpool ucp_requests
[1662278779.139365] [node1335:105143:0]          mpool.c:43   UCX  WARN  object 0x4a21200 was not returned to mpool ucp_requests
[1662278779.203373] [node1343:216197:0]          mpool.c:43   UCX  WARN  object 0x484ce40 was not returned to mpool ucp_requests
[1662278779.220683] [node1340:50009:0]          mpool.c:43   UCX  WARN  object 0x4167bc0 was not returned to mpool ucp_requests
[1662278779.220701] [node1340:50009:0]          mpool.c:43   UCX  WARN  object 0x416a780 was not returned to mpool ucp_requests
[1662278779.221332] [node1340:50002:0]          mpool.c:43   UCX  WARN  object 0x4af7d40 was not returned to mpool ucp_requests
[1662278779.221494] [node1340:50010:0]          mpool.c:43   UCX  WARN  object 0x4b261c0 was not returned to mpool ucp_requests
[1662278779.223377] [node1335:105138:0]          mpool.c:43   UCX  WARN  object 0x336f740 was not returned to mpool ucp_requests
[1662278779.222456] [node1340:49996:0]          mpool.c:43   UCX  WARN  object 0x35c0a80 was not returned to mpool ucp_requests
[1662278779.224003] [node1340:50004:0]          mpool.c:43   UCX  WARN  object 0x4aa1100 was not returned to mpool ucp_requests
[1662278779.224015] [node1340:50004:0]          mpool.c:43   UCX  WARN  object 0x4aa2b40 was not returned to mpool ucp_requests
[1662278779.224198] [node1335:105135:0]          mpool.c:43   UCX  WARN  object 0x3689100 was not returned to mpool ucp_requests
[1662278779.226401] [node1335:105145:0]          mpool.c:43   UCX  WARN  object 0x4504640 was not returned to mpool ucp_requests
[1662278779.222861] [node1335:105137:0]          mpool.c:43   UCX  WARN  object 0x46f7840 was not returned to mpool ucp_requests
[1662278779.224451] [node1340:49988:0]          mpool.c:43   UCX  WARN  object 0x2e993c0 was not returned to mpool ucp_requests
[1662278779.223512] [node1340:50001:0]          mpool.c:43   UCX  WARN  object 0x4646900 was not returned to mpool ucp_requests
[1662278779.225285] [node1340:50008:0]          mpool.c:43   UCX  WARN  object 0x315b080 was not returned to mpool ucp_requests
[1662278779.226943] [node1340:50000:0]          mpool.c:43   UCX  WARN  object 0x3d89a40 was not returned to mpool ucp_requests
[1662278779.226560] [node1340:49992:0]          mpool.c:43   UCX  WARN  object 0x395edc0 was not returned to mpool ucp_requests
[1662278779.230935] [node1340:49993:0]          mpool.c:43   UCX  WARN  object 0x4a02fc0 was not returned to mpool ucp_requests
[1662278779.228315] [node1335:105136:0]          mpool.c:43   UCX  WARN  object 0x3a95580 was not returned to mpool ucp_requests
[1662278779.228634] [node1335:105153:0]          mpool.c:43   UCX  WARN  object 0x46fb1c0 was not returned to mpool ucp_requests
