
     Program PWSCF v.6.6 starts on 10Oct2022 at 16:38:50 

     This program is part of the open-source Quantum ESPRESSO suite
     for quantum simulation of materials; please cite
         "P. Giannozzi et al., J. Phys.:Condens. Matter 21 395502 (2009);
         "P. Giannozzi et al., J. Phys.:Condens. Matter 29 465901 (2017);
          URL http://www.quantum-espresso.org", 
     in publications or presentations arising from this work. More details at
     http://www.quantum-espresso.org/quote

     Parallel version (MPI), running on    64 processors

     MPI processes distributed on     2 nodes
     R & G space division:  proc/nbgrp/npool/nimage =      64
     Fft bands division:     nmany     =       1
     Waiting for input...
     Reading input from standard input
Warning: card  &CELL ignored
Warning: card     CELL_DYNAMICS = 'BFGS', ignored
Warning: card     PRESS=0.0, ignored
Warning: card / ignored

     Current dimensions of program PWSCF are:
     Max number of different atomic species (ntypx) = 10
     Max number of k-points (npk) =  40000
     Max angular momentum in pseudopotentials (lmaxx) =  3

     IMPORTANT: XC functional enforced from input :
     Exchange-correlation= PBE
                           (   1   4   3   4   0   0   0)
     Any further DFT definition will be discarded
     Please, verify this is what you really want


     Subspace diagonalization in iterative solution of the eigenvalue problem:
     one sub-group per band group will be used
     scalapack distributed-memory algorithm (size of sub-group:  8*  8 procs)

     Found symmetry operation: I + (  0.1667 -0.2500 -0.0000)
     This is a supercell, fractional translations are disabled
     Message from routine setup:
     using ibrav=0 with symmetry is DISCOURAGED, use correct ibrav instead
 
     Parallelization info
     --------------------
     sticks:   dense  smooth     PW     G-vecs:    dense   smooth      PW
     Min         308     114     30                85288    19128    2614
     Max         309     115     31                85305    19140    2629
     Sum       19763    7301   1949              5458997  1224739  167589
 


     bravais-lattice index     =            0
     lattice parameter (alat)  =      23.9481  a.u.
     unit-cell volume          =   19507.9910 (a.u.)^3
     number of atoms/cell      =           48
     number of atomic types    =            2
     number of electrons       =       840.00
     number of Kohn-Sham states=          504
     kinetic-energy cutoff     =      60.0000  Ry
     charge density cutoff     =     650.0000  Ry
     convergence threshold     =      1.0E-10
     mixing beta               =       0.3000
     number of iterations used =            8  plain     mixing
     Exchange-correlation= PBE
                           (   1   4   3   4   0   0   0)
     nstep                     =           50


     celldm(1)=  23.948060  celldm(2)=   0.000000  celldm(3)=   0.000000
     celldm(4)=   0.000000  celldm(5)=   0.000000  celldm(6)=   0.000000

     crystal axes: (cart. coord. in units of alat)
               a(1) = (   1.000000   0.000000   0.000000 )  
               a(2) = (   0.000000   0.666667   0.000000 )  
               a(3) = (   0.000000   0.000000   2.130553 )  

     reciprocal axes: (cart. coord. in units 2 pi/alat)
               b(1) = (  1.000000  0.000000  0.000000 )  
               b(2) = (  0.000000  1.499998  0.000000 )  
               b(3) = (  0.000000  0.000000  0.469362 )  


     PseudoPot. # 1 for Cu read from file:
     ./pseudo-gbrv-pbe/cu_pbe_v1.2.uspp.F.UPF
     MD5 check sum: 6e991ff952a84172a2a52a1c1e996048
     Pseudo is Ultrasoft + core correction, Zval = 19.0
     Generated by new atomic code, or converted to UPF format
     Using radial grid of  867 points,  6 beta functions with: 
                l(1) =   0
                l(2) =   0
                l(3) =   1
                l(4) =   1
                l(5) =   2
                l(6) =   2
     Q(r) pseudized with  8 coefficients,  rinner =    1.150   1.150   1.150
                                                       1.150   1.150

     PseudoPot. # 2 for Pd read from file:
     ./pseudo-gbrv-pbe/pd_pbe_v1.4.uspp.F.UPF
     MD5 check sum: 2d733d2bc2cbfd217af676df1668a4bc
     Pseudo is Ultrasoft + core correction, Zval = 16.0
     Generated by new atomic code, or converted to UPF format
     Using radial grid of  887 points,  6 beta functions with: 
                l(1) =   0
                l(2) =   0
                l(3) =   1
                l(4) =   1
                l(5) =   2
                l(6) =   2
     Q(r) pseudized with  8 coefficients,  rinner =    1.130   1.130   1.130
                                                       1.130   1.130

     atomic species   valence    mass     pseudopotential
        Cu            19.00    63.54600     Cu( 1.00)
        Pd            16.00   106.42000     Pd( 1.00)

      4 Sym. Ops. (no inversion) found



   Cartesian axes

     site n.     atom                  positions (alat units)
         1           Pd  tau(   1) = (   0.0000000   0.1666665   0.0413789  )
         2           Pd  tau(   2) = (   0.1666666   0.0000000   0.0413787  )
         3           Pd  tau(   3) = (   0.0000000   0.5000001   0.0413789  )
         4           Pd  tau(   4) = (   0.1666663   0.3333332   0.0413792  )
         5           Pd  tau(   5) = (   0.3333330   0.1666664   0.0413790  )
         6           Pd  tau(   6) = (   0.4999999   0.0000000   0.0413798  )
         7           Pd  tau(   7) = (   0.3333330   0.5000002   0.0413790  )
         8           Pd  tau(   8) = (   0.4999999   0.3333332   0.0413781  )
         9           Pd  tau(   9) = (   0.6666666   0.1666664   0.0413790  )
        10           Pd  tau(  10) = (   0.8333328   0.0000000   0.0413787  )
        11           Pd  tau(  11) = (   0.6666666   0.5000002   0.0413790  )
        12           Pd  tau(  12) = (   0.8333335   0.3333332   0.0413792  )
        13           Cu  tau(  13) = (   0.0000000   0.0000000   0.1620901  )
        14           Cu  tau(  14) = (   0.1666663   0.1666663   0.1620904  )
        15           Pd  tau(  15) = (   0.0000000   0.1666663   0.2805274  )
        16           Pd  tau(  16) = (   0.1666662   0.0000000   0.2805270  )
        17           Cu  tau(  17) = (   0.0000000   0.3333332   0.1620907  )
        18           Cu  tau(  18) = (   0.1666663   0.5000002   0.1620904  )
        19           Pd  tau(  19) = (   0.0000000   0.5000003   0.2805274  )
        20           Pd  tau(  20) = (   0.1666668   0.3333332   0.2805269  )
        21           Cu  tau(  21) = (   0.3333332   0.0000000   0.1620907  )
        22           Cu  tau(  22) = (   0.4999999   0.1666666   0.1620902  )
        23           Pd  tau(  23) = (   0.3333329   0.1666668   0.2805266  )
        24           Pd  tau(  24) = (   0.4999999   0.0000000   0.2805269  )
        25           Cu  tau(  25) = (   0.3333336   0.3333332   0.1620898  )
        26           Cu  tau(  26) = (   0.4999999   0.5000000   0.1620902  )
        27           Pd  tau(  27) = (   0.3333329   0.4999998   0.2805266  )
        28           Pd  tau(  28) = (   0.4999999   0.3333332   0.2805265  )
        29           Cu  tau(  29) = (   0.6666664   0.0000000   0.1620907  )
        30           Cu  tau(  30) = (   0.8333335   0.1666663   0.1620904  )
        31           Pd  tau(  31) = (   0.6666667   0.1666668   0.2805266  )
        32           Pd  tau(  32) = (   0.8333332   0.0000000   0.2805270  )
        33           Cu  tau(  33) = (   0.6666661   0.3333332   0.1620898  )
        34           Cu  tau(  34) = (   0.8333335   0.5000002   0.1620904  )
        35           Pd  tau(  35) = (   0.6666667   0.4999998   0.2805266  )
        36           Pd  tau(  36) = (   0.8333330   0.3333332   0.2805269  )
        37           Cu  tau(  37) = (   0.0000000   0.0000000   0.4012378  )
        38           Cu  tau(  38) = (   0.1666667   0.1666666   0.4012378  )
        39           Cu  tau(  39) = (   0.0000000   0.3333332   0.4012378  )
        40           Cu  tau(  40) = (   0.1666667   0.5000000   0.4012378  )
        41           Cu  tau(  41) = (   0.3333339   0.0000000   0.4012378  )
        42           Cu  tau(  42) = (   0.4999999   0.1666655   0.4012378  )
        43           Cu  tau(  43) = (   0.3333328   0.3333332   0.4012378  )
        44           Cu  tau(  44) = (   0.4999999   0.5000010   0.4012378  )
        45           Cu  tau(  45) = (   0.6666657   0.0000000   0.4012378  )
        46           Cu  tau(  46) = (   0.8333331   0.1666666   0.4012378  )
        47           Cu  tau(  47) = (   0.6666669   0.3333332   0.4012378  )
        48           Cu  tau(  48) = (   0.8333331   0.5000000   0.4012378  )

     number of k points=     9  Methfessel-Paxton smearing, width (Ry)=  0.0200
                       cart. coord. in units 2pi/alat
        k(    1) = (   0.0000000   0.0000000   0.0000000), wk =   0.1250000
        k(    2) = (   0.0000000   0.3749996   0.0000000), wk =   0.2500000
        k(    3) = (   0.0000000  -0.7499991   0.0000000), wk =   0.1250000
        k(    4) = (   0.2500000   0.0000000   0.0000000), wk =   0.2500000
        k(    5) = (   0.2500000   0.3749996   0.0000000), wk =   0.5000000
        k(    6) = (   0.2500000  -0.7499991   0.0000000), wk =   0.2500000
        k(    7) = (  -0.5000000   0.0000000   0.0000000), wk =   0.1250000
        k(    8) = (  -0.5000000   0.3749996   0.0000000), wk =   0.2500000
        k(    9) = (  -0.5000000  -0.7499991   0.0000000), wk =   0.1250000

     Dense  grid:  5458997 G-vectors     FFT dimensions: ( 200, 135, 432)

     Smooth grid:  1224739 G-vectors     FFT dimensions: ( 120,  80, 256)

     Estimated max dynamical RAM per process >     604.03 MB

     Estimated total dynamical RAM >      37.75 GB

     Initial potential from superposition of free atoms

     starting charge  803.99979, renormalised to  840.00000

     negative rho (up, down):  1.910E+00 0.000E+00
     Starting wfcs are  600 randomized atomic wfcs

     total cpu time spent up to now is       44.0 secs

     Self-consistent Calculation

     iteration #  1     ecut=    60.00 Ry     beta= 0.30
     Davidson diagonalization with overlap
     ethr =  1.00E-02,  avg # of iterations =  9.2

     negative rho (up, down):  1.840E+00 0.000E+00

     total cpu time spent up to now is      175.0 secs

     total energy              =  -13517.01362291 Ry
     estimated scf accuracy    <    2012.58424171 Ry

     iteration #  2     ecut=    60.00 Ry     beta= 0.30
     Davidson diagonalization with overlap
     ethr =  1.00E-02,  avg # of iterations = 13.2

     negative rho (up, down):  1.845E+00 0.000E+00

     total cpu time spent up to now is      415.9 secs

     total energy              =  -13674.96850478 Ry
     estimated scf accuracy    <   24357.00212966 Ry

     iteration #  3     ecut=    60.00 Ry     beta= 0.30
     Davidson diagonalization with overlap
     ethr =  1.00E-02,  avg # of iterations = 11.9

     negative rho (up, down):  1.875E+00 0.000E+00

     total cpu time spent up to now is      711.6 secs

     total energy              =  -14315.73900829 Ry
     estimated scf accuracy    <    2506.41787672 Ry

     iteration #  4     ecut=    60.00 Ry     beta= 0.30
     Davidson diagonalization with overlap
     ethr =  1.00E-02,  avg # of iterations =  5.0

     negative rho (up, down):  1.889E+00 0.000E+00

     total cpu time spent up to now is      831.5 secs

     total energy              =  -14475.28952043 Ry
     estimated scf accuracy    <     297.90442900 Ry

     iteration #  5     ecut=    60.00 Ry     beta= 0.30
     Davidson diagonalization with overlap
     ethr =  1.00E-02,  avg # of iterations =  2.0

     negative rho (up, down):  1.883E+00 0.000E+00

     total cpu time spent up to now is      961.2 secs

     total energy              =  -14480.31100028 Ry
     estimated scf accuracy    <      89.88613447 Ry

     iteration #  6     ecut=    60.00 Ry     beta= 0.30
     Davidson diagonalization with overlap
     ethr =  1.00E-02,  avg # of iterations =  1.0

     negative rho (up, down):  1.879E+00 0.000E+00

     total cpu time spent up to now is     1012.9 secs

     total energy              =  -14469.18843892 Ry
     estimated scf accuracy    <      52.66312279 Ry

     iteration #  7     ecut=    60.00 Ry     beta= 0.30
     Davidson diagonalization with overlap
     ethr =  6.27E-03,  avg # of iterations =  2.0

     negative rho (up, down):  1.879E+00 0.000E+00

     total cpu time spent up to now is     1073.7 secs

     total energy              =  -14471.16456082 Ry
     estimated scf accuracy    <      76.02881223 Ry

     iteration #  8     ecut=    60.00 Ry     beta= 0.30
     Davidson diagonalization with overlap
     ethr =  6.27E-03,  avg # of iterations =  1.0

     negative rho (up, down):  1.880E+00 0.000E+00

     total cpu time spent up to now is     1120.7 secs

     total energy              =  -14469.96646423 Ry
     estimated scf accuracy    <      73.32223528 Ry

     iteration #  9     ecut=    60.00 Ry     beta= 0.30
     Davidson diagonalization with overlap
     ethr =  6.27E-03,  avg # of iterations =  1.1

     negative rho (up, down):  1.880E+00 0.000E+00

     total cpu time spent up to now is     1204.2 secs

     total energy              =  -14469.65455881 Ry
     estimated scf accuracy    <      60.88851393 Ry

     iteration # 10     ecut=    60.00 Ry     beta= 0.30
     Davidson diagonalization with overlap
     ethr =  6.27E-03,  avg # of iterations =  1.0

     negative rho (up, down):  1.880E+00 0.000E+00

     total cpu time spent up to now is     1259.1 secs

     total energy              =  -14456.80050242 Ry
     estimated scf accuracy    <      50.10246207 Ry

     iteration # 11     ecut=    60.00 Ry     beta= 0.30
     Davidson diagonalization with overlap
     ethr =  5.96E-03,  avg # of iterations =  3.1

     negative rho (up, down):  1.880E+00 0.000E+00

     total cpu time spent up to now is     1406.6 secs

     total energy              =  -14459.21904489 Ry
     estimated scf accuracy    <     170.55667898 Ry

     iteration # 12     ecut=    60.00 Ry     beta= 0.30
     Davidson diagonalization with overlap
     ethr =  5.96E-03,  avg # of iterations =  1.0

     negative rho (up, down):  1.881E+00 0.000E+00

     total cpu time spent up to now is     1516.3 secs

     total energy              =  -14451.09935179 Ry
     estimated scf accuracy    <     110.92814166 Ry

     iteration # 13     ecut=    60.00 Ry     beta= 0.30
     Davidson diagonalization with overlap
     ethr =  5.96E-03,  avg # of iterations =  2.0

     negative rho (up, down):  1.881E+00 0.000E+00

     total cpu time spent up to now is     1569.2 secs

     total energy              =  -14455.44588989 Ry
     estimated scf accuracy    <      94.40034068 Ry

     iteration # 14     ecut=    60.00 Ry     beta= 0.30
     Davidson diagonalization with overlap
     ethr =  5.96E-03,  avg # of iterations =  2.0

     negative rho (up, down):  1.881E+00 0.000E+00

     total cpu time spent up to now is     1645.6 secs

     total energy              =  -14458.09650709 Ry
     estimated scf accuracy    <      36.83817703 Ry

     iteration # 15     ecut=    60.00 Ry     beta= 0.30
     Davidson diagonalization with overlap
     ethr =  4.39E-03,  avg # of iterations =  1.0

     negative rho (up, down):  1.879E+00 0.000E+00

     total cpu time spent up to now is     1721.8 secs

     total energy              =  -14458.50520518 Ry
     estimated scf accuracy    <       7.95169889 Ry

     iteration # 16     ecut=    60.00 Ry     beta= 0.30
     Davidson diagonalization with overlap
     ethr =  9.47E-04,  avg # of iterations =  3.0

     negative rho (up, down):  1.879E+00 0.000E+00

     total cpu time spent up to now is     1802.5 secs

     total energy              =  -14458.58458189 Ry
     estimated scf accuracy    <       4.61445732 Ry

     iteration # 17     ecut=    60.00 Ry     beta= 0.30
     Davidson diagonalization with overlap
     ethr =  5.49E-04,  avg # of iterations =  4.3

     negative rho (up, down):  1.879E+00 0.000E+00

     total cpu time spent up to now is     1923.5 secs

     total energy              =  -14458.37336059 Ry
     estimated scf accuracy    <       6.60092959 Ry

     iteration # 18     ecut=    60.00 Ry     beta= 0.30
     Davidson diagonalization with overlap
     ethr =  5.49E-04,  avg # of iterations =  5.4

     negative rho (up, down):  1.878E+00 0.000E+00

     total cpu time spent up to now is     1981.8 secs

     total energy              =  -14458.45560525 Ry
     estimated scf accuracy    <       1.66607184 Ry

     iteration # 19     ecut=    60.00 Ry     beta= 0.30
     Davidson diagonalization with overlap
     c_bands:  2 eigenvalues not converged
     ethr =  1.98E-04,  avg # of iterations = 17.4

     negative rho (up, down):  1.878E+00 0.000E+00

     total cpu time spent up to now is     2088.8 secs

     total energy              =  -14458.31708243 Ry
     estimated scf accuracy    <       3.75555558 Ry

     iteration # 20     ecut=    60.00 Ry     beta= 0.30
     Davidson diagonalization with overlap
     ethr =  1.98E-04,  avg # of iterations =  5.2

     negative rho (up, down):  1.877E+00 0.000E+00

     total cpu time spent up to now is     2154.0 secs

     total energy              =  -14458.49246119 Ry
     estimated scf accuracy    <       1.04581284 Ry

     iteration # 21     ecut=    60.00 Ry     beta= 0.30
     Davidson diagonalization with overlap
     c_bands:  1 eigenvalues not converged
     ethr =  1.25E-04,  avg # of iterations = 14.1

     negative rho (up, down):  1.877E+00 0.000E+00

     total cpu time spent up to now is     2229.1 secs

     total energy              =  -14458.49090566 Ry
     estimated scf accuracy    <       0.55648146 Ry

     iteration # 22     ecut=    60.00 Ry     beta= 0.30
     Davidson diagonalization with overlap
     ethr =  6.62E-05,  avg # of iterations =  4.1

     negative rho (up, down):  1.878E+00 0.000E+00

     total cpu time spent up to now is     2324.6 secs

     total energy              =  -14458.46220255 Ry
     estimated scf accuracy    <       0.29946921 Ry

     iteration # 23     ecut=    60.00 Ry     beta= 0.30
     Davidson diagonalization with overlap
     c_bands:  1 eigenvalues not converged
     ethr =  3.57E-05,  avg # of iterations =  7.6

     negative rho (up, down):  1.878E+00 0.000E+00

     total cpu time spent up to now is     2398.1 secs

     total energy              =  -14458.40641285 Ry
     estimated scf accuracy    <       2.47353472 Ry

     iteration # 24     ecut=    60.00 Ry     beta= 0.30
     Davidson diagonalization with overlap
     c_bands:  1 eigenvalues not converged
     ethr =  3.57E-05,  avg # of iterations =  5.4

     negative rho (up, down):  1.878E+00 0.000E+00

     total cpu time spent up to now is     2492.8 secs

     total energy              =  -14458.49078469 Ry
     estimated scf accuracy    <       0.47066987 Ry

     iteration # 25     ecut=    60.00 Ry     beta= 0.30
     Davidson diagonalization with overlap
     ethr =  3.57E-05,  avg # of iterations =  6.8

     negative rho (up, down):  1.878E+00 0.000E+00

     total cpu time spent up to now is     2592.1 secs

     total energy              =  -14458.50176242 Ry
     estimated scf accuracy    <       0.08521078 Ry

     iteration # 26     ecut=    60.00 Ry     beta= 0.30
     Davidson diagonalization with overlap
     ethr =  1.01E-05,  avg # of iterations =  8.6

     negative rho (up, down):  1.880E+00 0.000E+00

     total cpu time spent up to now is     2659.0 secs

     total energy              =  -14458.49907501 Ry
     estimated scf accuracy    <       0.04339478 Ry

     iteration # 27     ecut=    60.00 Ry     beta= 0.30
     Davidson diagonalization with overlap
     c_bands:  1 eigenvalues not converged
     c_bands:  1 eigenvalues not converged
     c_bands:  1 eigenvalues not converged
     ethr =  5.17E-06,  avg # of iterations = 12.9

     negative rho (up, down):  1.878E+00 0.000E+00

     total cpu time spent up to now is     2770.3 secs

     total energy              =  -14458.50091839 Ry
     estimated scf accuracy    <       0.04412301 Ry

     iteration # 28     ecut=    60.00 Ry     beta= 0.30
     Davidson diagonalization with overlap
     c_bands:  2 eigenvalues not converged
     ethr =  5.17E-06,  avg # of iterations = 11.8

     negative rho (up, down):  1.878E+00 0.000E+00

     total cpu time spent up to now is     2845.3 secs

     total energy              =  -14458.50428090 Ry
     estimated scf accuracy    <       0.00861441 Ry

     iteration # 29     ecut=    60.00 Ry     beta= 0.30
     Davidson diagonalization with overlap
     ethr =  1.03E-06,  avg # of iterations =  5.1

     negative rho (up, down):  1.878E+00 0.000E+00

     total cpu time spent up to now is     2945.3 secs

     total energy              =  -14458.50500297 Ry
     estimated scf accuracy    <       0.00781379 Ry

     iteration # 30     ecut=    60.00 Ry     beta= 0.30
     Davidson diagonalization with overlap
     ethr =  9.30E-07,  avg # of iterations =  1.8

     negative rho (up, down):  1.878E+00 0.000E+00

     total cpu time spent up to now is     3000.2 secs

     total energy              =  -14458.50539819 Ry
     estimated scf accuracy    <       0.00133661 Ry

     iteration # 31     ecut=    60.00 Ry     beta= 0.30
     Davidson diagonalization with overlap
     ethr =  1.59E-07,  avg # of iterations =  6.4

     negative rho (up, down):  1.878E+00 0.000E+00

     total cpu time spent up to now is     3061.6 secs

     total energy              =  -14458.50543517 Ry
     estimated scf accuracy    <       0.00131867 Ry

     iteration # 32     ecut=    60.00 Ry     beta= 0.30
     Davidson diagonalization with overlap
     ethr =  1.57E-07,  avg # of iterations =  2.9

     negative rho (up, down):  1.878E+00 0.000E+00

     total cpu time spent up to now is     3202.0 secs

     total energy              =  -14458.50553772 Ry
     estimated scf accuracy    <       0.00145963 Ry

     iteration # 33     ecut=    60.00 Ry     beta= 0.30
     Davidson diagonalization with overlap
     ethr =  1.57E-07,  avg # of iterations =  8.8

     negative rho (up, down):  1.879E+00 0.000E+00

     total cpu time spent up to now is     3311.2 secs

     total energy              =  -14458.50557326 Ry
     estimated scf accuracy    <       0.00235085 Ry

     iteration # 34     ecut=    60.00 Ry     beta= 0.30
     Davidson diagonalization with overlap
     ethr =  1.57E-07,  avg # of iterations =  4.8

     negative rho (up, down):  1.879E+00 0.000E+00

     total cpu time spent up to now is     3439.3 secs

     total energy              =  -14458.50564217 Ry
     estimated scf accuracy    <       0.00029000 Ry

     iteration # 35     ecut=    60.00 Ry     beta= 0.30
     Davidson diagonalization with overlap
     ethr =  3.45E-08,  avg # of iterations =  1.4

     negative rho (up, down):  1.879E+00 0.000E+00

     total cpu time spent up to now is     3492.0 secs

     total energy              =  -14458.50565716 Ry
     estimated scf accuracy    <       0.00017628 Ry

     iteration # 36     ecut=    60.00 Ry     beta= 0.30
     Davidson diagonalization with overlap
     ethr =  2.10E-08,  avg # of iterations =  2.4

     negative rho (up, down):  1.879E+00 0.000E+00

     total cpu time spent up to now is     3618.5 secs

     total energy              =  -14458.50565791 Ry
     estimated scf accuracy    <       0.00016096 Ry

     iteration # 37     ecut=    60.00 Ry     beta= 0.30
     Davidson diagonalization with overlap
     ethr =  1.92E-08,  avg # of iterations =  1.0

     negative rho (up, down):  1.880E+00 0.000E+00

     total cpu time spent up to now is     3667.6 secs

     total energy              =  -14458.50567081 Ry
     estimated scf accuracy    <       0.00004774 Ry

     iteration # 38     ecut=    60.00 Ry     beta= 0.30
     Davidson diagonalization with overlap
     ethr =  5.68E-09,  avg # of iterations =  2.7

     negative rho (up, down):  1.880E+00 0.000E+00

     total cpu time spent up to now is     3740.1 secs

     total energy              =  -14458.50567331 Ry
     estimated scf accuracy    <       0.00000525 Ry

     iteration # 39     ecut=    60.00 Ry     beta= 0.30
     Davidson diagonalization with overlap
     ethr =  6.25E-10,  avg # of iterations =  2.0

     negative rho (up, down):  1.880E+00 0.000E+00

     total cpu time spent up to now is     3809.4 secs

     total energy              =  -14458.50567349 Ry
     estimated scf accuracy    <       0.00000307 Ry

     iteration # 40     ecut=    60.00 Ry     beta= 0.30
     Davidson diagonalization with overlap
     ethr =  3.66E-10,  avg # of iterations =  1.6

     negative rho (up, down):  1.880E+00 0.000E+00

     total cpu time spent up to now is     3871.2 secs

     total energy              =  -14458.50567348 Ry
     estimated scf accuracy    <       0.00000455 Ry

     iteration # 41     ecut=    60.00 Ry     beta= 0.30
     Davidson diagonalization with overlap
     ethr =  3.66E-10,  avg # of iterations =  1.3

     negative rho (up, down):  1.880E+00 0.000E+00

     total cpu time spent up to now is     3944.0 secs

     total energy              =  -14458.50567364 Ry
     estimated scf accuracy    <       0.00000127 Ry

     iteration # 42     ecut=    60.00 Ry     beta= 0.30
     Davidson diagonalization with overlap
     ethr =  1.51E-10,  avg # of iterations =  1.1

     negative rho (up, down):  1.880E+00 0.000E+00

     total cpu time spent up to now is     4017.3 secs

     total energy              =  -14458.50567375 Ry
     estimated scf accuracy    <       0.00000061 Ry

     iteration # 43     ecut=    60.00 Ry     beta= 0.30
     Davidson diagonalization with overlap
     ethr =  7.29E-11,  avg # of iterations =  1.0

     negative rho (up, down):  1.880E+00 0.000E+00

     total cpu time spent up to now is     4138.4 secs

     total energy              =  -14458.50567376 Ry
     estimated scf accuracy    <       0.00000060 Ry

     iteration # 44     ecut=    60.00 Ry     beta= 0.30
     Davidson diagonalization with overlap
     ethr =  7.12E-11,  avg # of iterations =  1.0

     negative rho (up, down):  1.880E+00 0.000E+00

     total cpu time spent up to now is     4225.9 secs

     total energy              =  -14458.50567378 Ry
     estimated scf accuracy    <       0.00000044 Ry

     iteration # 45     ecut=    60.00 Ry     beta= 0.30
     Davidson diagonalization with overlap
     ethr =  5.26E-11,  avg # of iterations =  1.0

     negative rho (up, down):  1.880E+00 0.000E+00

     total cpu time spent up to now is     4277.2 secs

     total energy              =  -14458.50567383 Ry
     estimated scf accuracy    <       0.00000023 Ry

     iteration # 46     ecut=    60.00 Ry     beta= 0.30
     Davidson diagonalization with overlap
     ethr =  2.77E-11,  avg # of iterations =  1.0

     negative rho (up, down):  1.880E+00 0.000E+00

     total cpu time spent up to now is     4317.5 secs

     total energy              =  -14458.50567388 Ry
     estimated scf accuracy    <       0.00000011 Ry

     iteration # 47     ecut=    60.00 Ry     beta= 0.30
     Davidson diagonalization with overlap
     ethr =  1.27E-11,  avg # of iterations =  1.0

     negative rho (up, down):  1.880E+00 0.000E+00

     total cpu time spent up to now is     4362.9 secs

     total energy              =  -14458.50567387 Ry
     estimated scf accuracy    <       0.00000005 Ry

     iteration # 48     ecut=    60.00 Ry     beta= 0.30
     Davidson diagonalization with overlap
     ethr =  5.89E-12,  avg # of iterations =  1.0

     negative rho (up, down):  1.880E+00 0.000E+00

     total cpu time spent up to now is     4418.2 secs

     total energy              =  -14458.50567389 Ry
     estimated scf accuracy    <       0.00000004 Ry

     iteration # 49     ecut=    60.00 Ry     beta= 0.30
     Davidson diagonalization with overlap
     ethr =  5.25E-12,  avg # of iterations =  1.0

     negative rho (up, down):  1.880E+00 0.000E+00

     total cpu time spent up to now is     4495.5 secs

     total energy              =  -14458.50567390 Ry
     estimated scf accuracy    <          7.0E-09 Ry

     iteration # 50     ecut=    60.00 Ry     beta= 0.30
     Davidson diagonalization with overlap
     ethr =  8.35E-13,  avg # of iterations =  1.1

     negative rho (up, down):  1.880E+00 0.000E+00

     total cpu time spent up to now is     4572.2 secs

     total energy              =  -14458.50567390 Ry
     estimated scf accuracy    <          1.5E-09 Ry

     iteration # 51     ecut=    60.00 Ry     beta= 0.30
     Davidson diagonalization with overlap
     ethr =  1.78E-13,  avg # of iterations =  1.4

     negative rho (up, down):  1.880E+00 0.000E+00

     total cpu time spent up to now is     4669.3 secs

     total energy              =  -14458.50567391 Ry
     estimated scf accuracy    <          2.1E-09 Ry

     iteration # 52     ecut=    60.00 Ry     beta= 0.30
     Davidson diagonalization with overlap
     ethr =  1.78E-13,  avg # of iterations =  1.0

     negative rho (up, down):  1.880E+00 0.000E+00

     total cpu time spent up to now is     4716.7 secs

     total energy              =  -14458.50567391 Ry
     estimated scf accuracy    <          8.7E-10 Ry

     iteration # 53     ecut=    60.00 Ry     beta= 0.30
     Davidson diagonalization with overlap
     ethr =  1.04E-13,  avg # of iterations =  1.0

     negative rho (up, down):  1.880E+00 0.000E+00

     total cpu time spent up to now is     4791.2 secs

     total energy              =  -14458.50567391 Ry
     estimated scf accuracy    <          3.8E-10 Ry

     iteration # 54     ecut=    60.00 Ry     beta= 0.30
     Davidson diagonalization with overlap
     ethr =  1.00E-13,  avg # of iterations =  1.0

     negative rho (up, down):  1.880E+00 0.000E+00

     total cpu time spent up to now is     4876.5 secs

     total energy              =  -14458.50567391 Ry
     estimated scf accuracy    <          3.2E-10 Ry

     iteration # 55     ecut=    60.00 Ry     beta= 0.30
     Davidson diagonalization with overlap
     ethr =  1.00E-13,  avg # of iterations =  1.0

     negative rho (up, down):  1.880E+00 0.000E+00

     total cpu time spent up to now is     4914.8 secs

     total energy              =  -14458.50567391 Ry
     estimated scf accuracy    <          4.4E-10 Ry

     iteration # 56     ecut=    60.00 Ry     beta= 0.30
     Davidson diagonalization with overlap
     ethr =  1.00E-13,  avg # of iterations =  1.0

     negative rho (up, down):  1.880E+00 0.000E+00

     total cpu time spent up to now is     4953.0 secs

     End of self-consistent calculation

          k = 0.0000 0.0000 0.0000 (153173 PWs)   bands (ev):

  -111.3835-111.3833-111.3830-111.3827-111.3826-111.3826-111.3826-111.3825
  -111.3825-111.3821-111.3819-111.3816-110.9510-110.9508-110.9506-110.9503
  -110.9503-110.9502-110.9502-110.9502-110.9501-110.9498-110.9497-110.9495
   -68.7829 -68.7827 -68.7825 -68.7823 -68.7822 -68.7822 -68.7821 -68.7821
   -68.7820 -68.7820 -68.7820 -68.7819 -68.7819 -68.7819 -68.7818 -68.7814
   -68.7811 -68.7809 -68.7803 -68.7802 -68.7800 -68.7799 -68.7784 -68.7784
   -68.7781 -68.7781 -68.7766 -68.7764 -68.7763 -68.7762 -68.7745 -68.7744
   -68.7744 -68.7743 -68.7742 -68.7742 -68.3883 -68.3881 -68.3880 -68.3879
   -68.3879 -68.3875 -68.3864 -68.3863 -68.3856 -68.3855 -68.3845 -68.3845
   -68.3837 -68.3837 -68.3827 -68.3826 -68.3819 -68.3818 -68.3807 -68.3803
   -68.3803 -68.3802 -68.3802 -68.3799 -68.3232 -68.3230 -68.3228 -68.3224
   -68.3224 -68.3223 -68.3223 -68.3223 -68.3222 -68.3219 -68.3217 -68.3215
   -49.3492 -49.3492 -49.3491 -49.3491 -49.3474 -49.3461 -49.3273 -49.3272
   -49.3268 -49.3267 -49.3147 -49.3106 -49.3105 -49.3082 -49.3082 -49.3066
   -49.3064 -49.3063 -49.3062 -49.3062 -49.3060 -49.3058 -49.3058 -49.3024
   -49.3023 -49.2986 -49.2870 -49.2869 -49.2865 -49.2864 -49.2667 -49.2655
   -49.2654 -49.2654 -49.2653 -49.2653 -48.7999 -48.7999 -48.7997 -48.7997
   -48.7984 -48.7969 -48.7792 -48.7791 -48.7770 -48.7769 -48.7584 -48.7584
   -48.7578 -48.7578 -48.7390 -48.7390 -48.7368 -48.7368 -48.7182 -48.7169
   -48.7169 -48.7168 -48.7168 -48.7167 -48.6326 -48.6287 -48.6286 -48.6248
   -48.6247 -48.6246 -48.6246 -48.6245 -48.6244 -48.6208 -48.6207 -48.6170
    -6.5371  -5.5714  -5.5712  -4.6155  -4.6153  -4.4873  -4.3458  -4.3225
    -4.3224  -4.3223  -4.3223  -4.0639  -4.0639  -3.9045  -3.9044  -3.8665
    -3.8665  -3.8664  -3.8663  -3.7854  -3.5752  -3.4960  -3.4958  -3.3927
    -3.3926  -3.3582  -3.3581  -3.2916  -3.2542  -3.2534  -3.2119  -3.2119
    -3.2119  -3.2118  -3.1549  -3.1548  -3.1423  -3.1422  -3.0687  -3.0686
    -3.0386  -3.0202  -2.9969  -2.9969  -2.9660  -2.9660  -2.9659  -2.9659
    -2.9589  -2.9588  -2.8164  -2.7233  -2.7232  -2.7218  -2.7218  -2.7039
    -2.7039  -2.6856  -2.6855  -2.6824  -2.6824  -2.6382  -2.6382  -2.6381
    -2.6381  -2.6086  -2.6084  -2.5913  -2.5912  -2.5912  -2.5911  -2.5414
    -2.5413  -2.5090  -2.5090  -2.4609  -2.4608  -2.4608  -2.4608  -2.4287
    -2.4286  -2.3267  -2.3266  -2.2307  -2.2307  -2.2056  -2.2055  -2.1947
    -2.1947  -2.1267  -2.1266  -2.0879  -2.0704  -2.0703  -2.0504  -2.0504
    -2.0236  -2.0229  -2.0139  -2.0139  -2.0138  -2.0138  -1.8587  -1.8586
    -1.8246  -1.8246  -1.7845  -1.6052  -1.5969  -1.5967  -1.5526  -1.5526
    -1.5526  -1.5525  -1.5362  -1.5361  -1.5258  -1.5258  -1.5050  -1.5050
    -1.4360  -1.4360  -1.4359  -1.4359  -1.4273  -1.4273  -1.4212  -1.4212
    -1.3810  -1.3810  -1.3809  -1.3809  -1.3227  -1.3227  -1.2691  -1.2690
    -1.2437  -1.2436  -1.2436  -1.2436  -1.2080  -1.2080  -1.1711  -1.1711
    -1.1015  -1.0655  -1.0655  -1.0655  -1.0655  -1.0641  -1.0641  -1.0215
    -1.0096  -1.0096  -1.0096  -1.0095  -0.9399  -0.9399  -0.9299  -0.8892
    -0.8730  -0.8729  -0.8579  -0.8579  -0.8578  -0.8578  -0.8442  -0.8442
    -0.8238  -0.8237  -0.8237  -0.8237  -0.8156  -0.8156  -0.8141  -0.8140
    -0.7783  -0.7680  -0.7680  -0.7660  -0.7660  -0.7623  -0.7619  -0.7593
    -0.7593  -0.7470  -0.7469  -0.7388  -0.7022  -0.7022  -0.6917  -0.6917
    -0.6759  -0.6758  -0.6752  -0.6234  -0.6233  -0.6088  -0.6088  -0.5882
    -0.5882  -0.5869  -0.5663  -0.5663  -0.5662  -0.5662  -0.5601  -0.5601
    -0.4734  -0.3980  -0.3979  -0.3979  -0.3979  -0.3892  -0.3892  -0.3621
    -0.3621  -0.3611  -0.3611  -0.3037  -0.3036  -0.3034  -0.3034  -0.2491
    -0.2491  -0.2441  -0.1500  -0.1500  -0.1447  -0.1447  -0.1446  -0.1446
    -0.0884  -0.0407  -0.0406  -0.0395  -0.0394  -0.0318  -0.0317   0.0051
     0.0051   0.0051   0.0052   0.0088   0.0088   0.0283   0.0606   0.0606
     0.0607   0.0607   0.0853   0.0854   0.1329   0.3422   0.5004   0.5725
     0.5726   0.7968   0.7969   0.7969   0.7970   1.3320   1.3320   2.0062
     2.0063   2.4013   2.4408   2.4408   2.4409   2.4410   2.5431   2.5432
     2.5463   2.5464   2.5464   2.5464   2.7013   2.7014   3.5640   3.5640
     3.9477   3.9477   3.9478   3.9478   4.1858   4.1858   4.3366   4.7494
     4.7495   4.7632   4.8232   4.8658   4.8658   5.1474   5.1474   5.1474
     5.1474   5.3023   5.3024   5.7319   5.7321   5.7730   5.7731   5.7765
     5.7767   5.7842   5.8592   5.9639   6.4004   6.4005   6.4683   6.4683
     6.4810   6.4810   6.7914   6.7916   6.8378   6.8380   6.9046   6.9046
     6.9465   6.9465   6.9812   7.1746   7.2203   7.2203   7.2204   7.2205
     7.2304   7.2305   7.4396   7.4397   7.4996   7.5573   7.5573   7.5574

          k = 0.0000 0.3750 0.0000 (153159 PWs)   bands (ev):

  -111.3835-111.3833-111.3830-111.3827-111.3826-111.3826-111.3825-111.3825
  -111.3824-111.3821-111.3819-111.3816-110.9510-110.9508-110.9506-110.9503
  -110.9503-110.9502-110.9502-110.9502-110.9501-110.9498-110.9497-110.9495
   -68.7829 -68.7827 -68.7826 -68.7826 -68.7825 -68.7821 -68.7820 -68.7820
   -68.7820 -68.7819 -68.7819 -68.7817 -68.7817 -68.7816 -68.7816 -68.7814
   -68.7812 -68.7809 -68.7809 -68.7809 -68.7798 -68.7795 -68.7785 -68.7785
   -68.7780 -68.7779 -68.7769 -68.7767 -68.7756 -68.7756 -68.7749 -68.7748
   -68.7747 -68.7745 -68.7739 -68.7739 -68.3884 -68.3884 -68.3880 -68.3875
   -68.3875 -68.3872 -68.3868 -68.3868 -68.3859 -68.3852 -68.3844 -68.3843
   -68.3839 -68.3839 -68.3831 -68.3823 -68.3814 -68.3814 -68.3810 -68.3808
   -68.3807 -68.3802 -68.3798 -68.3798 -68.3232 -68.3230 -68.3228 -68.3225
   -68.3224 -68.3224 -68.3223 -68.3223 -68.3221 -68.3219 -68.3217 -68.3215
   -49.3536 -49.3536 -49.3445 -49.3431 -49.3416 -49.3416 -49.3382 -49.3382
   -49.3234 -49.3213 -49.3141 -49.3103 -49.3102 -49.3096 -49.3096 -49.3095
   -49.3078 -49.3077 -49.3048 -49.3047 -49.3043 -49.3043 -49.3034 -49.3027
   -49.3026 -49.2992 -49.2926 -49.2904 -49.2763 -49.2763 -49.2722 -49.2722
   -49.2699 -49.2685 -49.2607 -49.2607 -48.8042 -48.8042 -48.7954 -48.7940
   -48.7924 -48.7924 -48.7889 -48.7889 -48.7737 -48.7730 -48.7607 -48.7607
   -48.7554 -48.7554 -48.7430 -48.7423 -48.7277 -48.7277 -48.7235 -48.7235
   -48.7212 -48.7199 -48.7122 -48.7122 -48.6320 -48.6284 -48.6283 -48.6277
   -48.6261 -48.6260 -48.6231 -48.6231 -48.6217 -48.6211 -48.6210 -48.6175
    -6.3937  -5.4562  -5.4561  -5.3400  -4.6928  -4.6927  -4.3917  -4.2745
    -4.1285  -4.1285  -4.1136  -4.0235  -4.0235  -4.0061  -4.0061  -3.9488
    -3.9487  -3.7876  -3.7236  -3.5306  -3.5306  -3.5262  -3.5261  -3.5034
    -3.4055  -3.3170  -3.3169  -3.3154  -3.3153  -3.2997  -3.2897  -3.2897
    -3.2528  -3.2517  -3.2256  -3.1421  -3.1420  -3.1205  -3.1204  -3.1086
    -3.0865  -3.0551  -3.0550  -3.0252  -2.9704  -2.9517  -2.9517  -2.9416
    -2.9320  -2.9320  -2.9298  -2.9298  -2.7885  -2.7236  -2.7235  -2.6878
    -2.6850  -2.6759  -2.6758  -2.6665  -2.6503  -2.6503  -2.6185  -2.6184
    -2.5968  -2.5891  -2.5340  -2.5340  -2.5303  -2.5160  -2.5160  -2.4702
    -2.4657  -2.4656  -2.4487  -2.4486  -2.4229  -2.4229  -2.3768  -2.3767
    -2.3555  -2.3554  -2.3484  -2.3357  -2.3356  -2.2620  -2.2416  -2.2416
    -2.2270  -2.1867  -2.1200  -2.1199  -2.1190  -2.0702  -2.0404  -1.9974
    -1.9564  -1.9563  -1.9358  -1.9358  -1.9139  -1.8412  -1.7500  -1.7499
    -1.7003  -1.7003  -1.6815  -1.6766  -1.6166  -1.5899  -1.5794  -1.5794
    -1.5516  -1.5516  -1.5047  -1.5047  -1.4886  -1.4886  -1.4757  -1.4652
    -1.4652  -1.4635  -1.4480  -1.4441  -1.4440  -1.4308  -1.4302  -1.4301
    -1.4003  -1.4002  -1.3995  -1.3995  -1.3428  -1.3427  -1.3101  -1.3101
    -1.3014  -1.3014  -1.2960  -1.2628  -1.2503  -1.2503  -1.2119  -1.1128
    -1.1114  -1.1114  -1.0535  -1.0535  -1.0114  -1.0114  -0.9984  -0.9979
    -0.9979  -0.9960  -0.9619  -0.9619  -0.9539  -0.9539  -0.9346  -0.9346
    -0.9216  -0.9008  -0.8893  -0.8893  -0.8842  -0.8842  -0.8443  -0.8362
    -0.8320  -0.8320  -0.8228  -0.8227  -0.8209  -0.8208  -0.8162  -0.8161
    -0.8016  -0.7814  -0.7575  -0.7565  -0.7564  -0.7503  -0.7405  -0.7352
    -0.7352  -0.7319  -0.7241  -0.7240  -0.7143  -0.7143  -0.7040  -0.7015
    -0.7015  -0.6876  -0.6839  -0.6838  -0.6739  -0.6528  -0.6452  -0.6425
    -0.6425  -0.6009  -0.6009  -0.5789  -0.5788  -0.5440  -0.5386  -0.5386
    -0.4901  -0.4900  -0.4331  -0.4321  -0.4028  -0.4028  -0.3994  -0.3948
    -0.3948  -0.3706  -0.3511  -0.3272  -0.3266  -0.3266  -0.3084  -0.3083
    -0.2821  -0.2821  -0.2809  -0.2808  -0.2426  -0.2023  -0.2023  -0.1346
    -0.1219  -0.1093  -0.1092  -0.1068  -0.0881  -0.0426  -0.0406  -0.0393
    -0.0165  -0.0165  -0.0094  -0.0062  -0.0061   0.0520   0.0521   0.0725
     0.1139   0.1139   0.1468   0.1468   0.3309   0.3616   0.3616   0.4776
     0.6456   0.6456   1.3652   1.3653   1.5926   1.5930   1.8357   1.8358
     1.9047   1.9048   1.9606   2.1057   2.1058   2.1259   2.1259   2.5717
     2.7316   2.7316   3.0998   3.3703   3.3704   3.6428   3.6429   3.7121
     3.7122   3.7371   3.8527   4.1095   4.1095   4.2406   4.2407   4.2568
     4.2569   4.4774   4.4777   4.9030   4.9573   5.1451   5.1834   5.1834
     5.3308   5.3308   5.4197   5.4198   5.5162   5.5163   5.5518   5.8511
     5.8513   5.8978   5.8980   5.9370   5.9832   5.9953   6.0150   6.0240
     6.0626   6.2631   6.4897   6.4897   6.5097   6.5098   6.5197   6.5199
     6.8781   6.8783   6.8972   6.8974   6.9699   6.9701   7.0180   7.0182
     7.0417   7.0954   7.1511   7.3355   7.5092   7.5472   7.5533   7.7145

          k = 0.0000-0.7500 0.0000 (152988 PWs)   bands (ev):

  -111.3835-111.3833-111.3830-111.3827-111.3826-111.3826-111.3825-111.3825
  -111.3824-111.3821-111.3819-111.3816-110.9510-110.9508-110.9506-110.9504
  -110.9503-110.9502-110.9502-110.9502-110.9500-110.9498-110.9497-110.9495
   -68.7829 -68.7827 -68.7825 -68.7824 -68.7824 -68.7823 -68.7823 -68.7822
   -68.7820 -68.7820 -68.7819 -68.7819 -68.7816 -68.7814 -68.7814 -68.7812
   -68.7811 -68.7809 -68.7807 -68.7805 -68.7796 -68.7796 -68.7796 -68.7795
   -68.7769 -68.7769 -68.7769 -68.7768 -68.7760 -68.7757 -68.7753 -68.7751
   -68.7741 -68.7741 -68.7741 -68.7740 -68.3883 -68.3882 -68.3882 -68.3881
   -68.3874 -68.3869 -68.3866 -68.3862 -68.3855 -68.3855 -68.3855 -68.3854
   -68.3828 -68.3828 -68.3827 -68.3827 -68.3821 -68.3816 -68.3813 -68.3808
   -68.3801 -68.3801 -68.3800 -68.3800 -68.3232 -68.3229 -68.3228 -68.3226
   -68.3224 -68.3224 -68.3223 -68.3222 -68.3220 -68.3219 -68.3217 -68.3215
   -49.3509 -49.3509 -49.3509 -49.3509 -49.3365 -49.3358 -49.3347 -49.3340
   -49.3225 -49.3225 -49.3225 -49.3225 -49.3126 -49.3119 -49.3096 -49.3095
   -49.3089 -49.3088 -49.3039 -49.3037 -49.3032 -49.3031 -49.3012 -49.3005
   -49.2918 -49.2918 -49.2918 -49.2917 -49.2794 -49.2788 -49.2776 -49.2769
   -49.2631 -49.2631 -49.2631 -49.2631 -48.8016 -48.8016 -48.8016 -48.8016
   -48.7869 -48.7865 -48.7859 -48.7854 -48.7733 -48.7733 -48.7733 -48.7733
   -48.7430 -48.7430 -48.7430 -48.7430 -48.7302 -48.7297 -48.7292 -48.7287
   -48.7146 -48.7145 -48.7145 -48.7145 -48.6305 -48.6300 -48.6277 -48.6276
   -48.6272 -48.6271 -48.6221 -48.6220 -48.6217 -48.6216 -48.6194 -48.6189
    -5.9778  -5.9770  -5.1350  -5.1348  -5.1342  -5.1341  -4.1321  -4.1315
    -4.1117  -4.1111  -4.0165  -4.0164  -4.0162  -4.0162  -3.9877  -3.9877
    -3.9875  -3.9874  -3.5501  -3.5501  -3.5497  -3.5496  -3.5415  -3.5408
    -3.3506  -3.3500  -3.3105  -3.3099  -3.2907  -3.2907  -3.2906  -3.2906
    -3.1956  -3.1950  -3.1931  -3.1930  -3.1929  -3.1928  -3.1550  -3.1549
    -3.1547  -3.1546  -3.1456  -3.1450  -2.9400  -2.9399  -2.9397  -2.9396
    -2.8845  -2.8844  -2.8840  -2.8839  -2.8325  -2.8321  -2.7723  -2.7720
    -2.7215  -2.7211  -2.7057  -2.7057  -2.7056  -2.7056  -2.5663  -2.5657
    -2.5529  -2.5528  -2.5528  -2.5527  -2.4710  -2.4707  -2.4320  -2.4319
    -2.4316  -2.4315  -2.4170  -2.4169  -2.4169  -2.4168  -2.3787  -2.3786
    -2.3785  -2.3785  -2.3282  -2.3281  -2.3278  -2.3278  -2.3090  -2.3086
    -2.1040  -2.1037  -1.9893  -1.9892  -1.9623  -1.9622  -1.9447  -1.9445
    -1.8847  -1.8847  -1.7827  -1.7827  -1.7825  -1.7825  -1.6906  -1.6906
    -1.6905  -1.6905  -1.6620  -1.6620  -1.6619  -1.6619  -1.5577  -1.5575
    -1.5558  -1.5558  -1.5555  -1.5554  -1.5176  -1.5176  -1.5173  -1.5172
    -1.4455  -1.4455  -1.4452  -1.4452  -1.4341  -1.4340  -1.3805  -1.3803
    -1.3799  -1.3799  -1.3797  -1.3797  -1.3782  -1.3780  -1.3392  -1.3391
    -1.3390  -1.3389  -1.2701  -1.2701  -1.2700  -1.2699  -1.2171  -1.2171
    -1.2169  -1.2169  -1.0687  -1.0687  -1.0686  -1.0686  -0.9956  -0.9953
    -0.9587  -0.9586  -0.9555  -0.9555  -0.9554  -0.9554  -0.9295  -0.9290
    -0.9125  -0.9125  -0.9125  -0.9125  -0.8989  -0.8989  -0.8987  -0.8987
    -0.8775  -0.8771  -0.8304  -0.8304  -0.8302  -0.8302  -0.8265  -0.8265
    -0.8264  -0.8264  -0.8137  -0.8133  -0.8111  -0.8107  -0.7224  -0.7223
    -0.7221  -0.7221  -0.7212  -0.7208  -0.7140  -0.7137  -0.6990  -0.6987
    -0.6730  -0.6730  -0.6728  -0.6727  -0.6479  -0.6478  -0.6476  -0.6475
    -0.6221  -0.6220  -0.5869  -0.5869  -0.5868  -0.5868  -0.5559  -0.5558
    -0.5106  -0.5106  -0.5104  -0.5104  -0.5001  -0.5001  -0.4947  -0.4947
    -0.4944  -0.4944  -0.4225  -0.4224  -0.3187  -0.3187  -0.3186  -0.3185
    -0.3176  -0.3173  -0.2774  -0.2774  -0.2773  -0.2772  -0.2145  -0.2140
    -0.1161  -0.1157  -0.0928  -0.0927  -0.0419  -0.0413   0.0107   0.0107
     0.0108   0.0108   0.0403   0.0403   0.0406   0.0406   0.0879   0.0879
     0.1384   0.1384   0.1386   0.1386   0.7355   0.7359   0.7846   0.7847
     0.7849   0.7849   0.8969   0.8972   1.5115   1.5116   1.5120   1.5121
     2.3027   2.3027   2.3030   2.3030   2.3823   2.3824   2.3828   2.3829
     2.9285   2.9287   3.0705   3.0708   3.6654   3.6654   3.6654   3.6655
     3.8335   3.8336   3.8338   3.8339   4.0086   4.0090   4.4601   4.4602
     4.4604   4.4604   4.8714   4.8715   4.8716   4.8716   4.8873   4.8874
     5.1364   5.1365   5.3140   5.3141   5.3585   5.3586   5.7402   5.7402
     5.7403   5.7404   5.7488   5.7489   5.7489   5.7489   6.1413   6.1414
     6.1415   6.1416   6.2764   6.2765   6.2766   6.2766   6.3696   6.3698
     6.4078   6.4079   6.6524   6.6530   6.7396   6.7397   6.7397   6.7397
     7.0842   7.0847   7.3044   7.3045   7.3045   7.3046   7.4566   7.4573

          k = 0.2500 0.0000 0.0000 (153097 PWs)   bands (ev):

  -111.3835-111.3833-111.3830-111.3827-111.3826-111.3826-111.3826-111.3825
  -111.3825-111.3821-111.3819-111.3816-110.9510-110.9508-110.9506-110.9503
  -110.9503-110.9502-110.9502-110.9502-110.9501-110.9498-110.9496-110.9495
   -68.7829 -68.7827 -68.7826 -68.7826 -68.7825 -68.7821 -68.7820 -68.7820
   -68.7820 -68.7819 -68.7819 -68.7818 -68.7818 -68.7816 -68.7815 -68.7814
   -68.7811 -68.7809 -68.7809 -68.7807 -68.7794 -68.7794 -68.7793 -68.7791
   -68.7774 -68.7771 -68.7771 -68.7771 -68.7758 -68.7756 -68.7749 -68.7749
   -68.7746 -68.7744 -68.7739 -68.7739 -68.3884 -68.3884 -68.3882 -68.3875
   -68.3874 -68.3873 -68.3870 -68.3863 -68.3855 -68.3853 -68.3853 -68.3847
   -68.3835 -68.3829 -68.3829 -68.3828 -68.3819 -68.3813 -68.3809 -68.3808
   -68.3808 -68.3800 -68.3798 -68.3798 -68.3232 -68.3230 -68.3228 -68.3224
   -68.3224 -68.3223 -68.3223 -68.3223 -68.3222 -68.3219 -68.3217 -68.3215
   -49.3540 -49.3540 -49.3460 -49.3448 -49.3414 -49.3414 -49.3356 -49.3348
   -49.3196 -49.3196 -49.3176 -49.3173 -49.3145 -49.3123 -49.3086 -49.3066
   -49.3064 -49.3063 -49.3063 -49.3062 -49.3060 -49.3042 -49.3008 -49.2988
   -49.2967 -49.2964 -49.2945 -49.2945 -49.2786 -49.2778 -49.2729 -49.2729
   -49.2681 -49.2669 -49.2606 -49.2606 -48.8046 -48.8046 -48.7971 -48.7956
   -48.7921 -48.7921 -48.7872 -48.7852 -48.7705 -48.7705 -48.7696 -48.7673
   -48.7489 -48.7465 -48.7457 -48.7457 -48.7305 -48.7285 -48.7244 -48.7244
   -48.7196 -48.7180 -48.7121 -48.7121 -48.6324 -48.6303 -48.6267 -48.6248
   -48.6247 -48.6246 -48.6246 -48.6245 -48.6244 -48.6226 -48.6192 -48.6172
    -6.4731  -5.9774  -5.0975  -4.5816  -4.5814  -4.4443  -4.3863  -4.3861
    -4.3133  -4.3119  -4.3118  -4.2291  -4.1317  -4.1114  -3.8746  -3.8745
    -3.8190  -3.8189  -3.7579  -3.6756  -3.5712  -3.5711  -3.5429  -3.5412
    -3.4161  -3.3497  -3.3102  -3.2910  -3.2596  -3.2417  -3.1954  -3.1786
    -3.1786  -3.1604  -3.1603  -3.1460  -3.1395  -3.0679  -3.0331  -3.0175
    -3.0174  -2.9979  -2.9939  -2.9939  -2.9907  -2.9842  -2.9362  -2.9361
    -2.9294  -2.9293  -2.8322  -2.8037  -2.8021  -2.8020  -2.7721  -2.7213
    -2.7089  -2.7089  -2.7010  -2.6824  -2.6817  -2.6461  -2.6461  -2.6426
    -2.6425  -2.6044  -2.6044  -2.6031  -2.6017  -2.5703  -2.5703  -2.5658
    -2.5297  -2.5296  -2.5210  -2.4999  -2.4999  -2.4944  -2.4899  -2.4709
    -2.3721  -2.3720  -2.3094  -2.2459  -2.2417  -2.1599  -2.1195  -2.1195
    -2.1039  -2.0699  -2.0699  -2.0657  -2.0492  -2.0491  -2.0376  -2.0376
    -2.0093  -1.9889  -1.9623  -1.9540  -1.9540  -1.9445  -1.8847  -1.8534
    -1.8349  -1.7917  -1.7917  -1.7031  -1.6658  -1.6657  -1.6339  -1.6326
    -1.5965  -1.5759  -1.5759  -1.5574  -1.5203  -1.5203  -1.5024  -1.4803
    -1.4630  -1.4630  -1.4373  -1.4338  -1.4318  -1.4318  -1.4100  -1.4100
    -1.4094  -1.3804  -1.3783  -1.3549  -1.3549  -1.3400  -1.2797  -1.2797
    -1.2692  -1.2559  -1.2559  -1.2242  -1.2242  -1.1974  -1.1974  -1.1566
    -1.1546  -1.0834  -1.0834  -1.0797  -1.0796  -1.0758  -1.0099  -0.9954
    -0.9807  -0.9807  -0.9585  -0.9565  -0.9565  -0.9452  -0.9452  -0.9293
    -0.9254  -0.8938  -0.8921  -0.8921  -0.8819  -0.8819  -0.8772  -0.8170
    -0.8158  -0.8137  -0.8128  -0.8127  -0.8110  -0.8013  -0.7871  -0.7871
    -0.7839  -0.7720  -0.7709  -0.7567  -0.7539  -0.7482  -0.7469  -0.7439
    -0.7439  -0.7212  -0.7160  -0.7136  -0.6989  -0.6805  -0.6684  -0.6684
    -0.6628  -0.6628  -0.6561  -0.6451  -0.6260  -0.6221  -0.6134  -0.6134
    -0.6055  -0.6054  -0.5884  -0.5884  -0.5560  -0.5118  -0.5118  -0.5045
    -0.4997  -0.4887  -0.4887  -0.4777  -0.4764  -0.4730  -0.4224  -0.3961
    -0.3409  -0.3174  -0.2950  -0.2885  -0.2885  -0.2681  -0.2507  -0.2427
    -0.2427  -0.2345  -0.2345  -0.2143  -0.1160  -0.1102  -0.1102  -0.1035
    -0.0928  -0.0779  -0.0779  -0.0416  -0.0399  -0.0399  -0.0376  -0.0352
    -0.0323  -0.0323  -0.0261  -0.0261  -0.0205   0.0862   0.0878   0.1072
     0.1449   0.1449   0.1580   0.1580   0.4017   0.4155   0.5854   0.5854
     0.6870   0.6871   0.7357   0.8971   1.0431   1.0432   1.2153   1.7998
     1.7998   1.8823   2.1452   2.1453   2.3313   2.4772   2.5548   2.5549
     2.6170   2.6171   2.8886   2.9289   3.0706   3.3129   3.3384   3.3385
     3.6570   3.6571   4.0087   4.1668   4.3996   4.5546   4.5547   4.8255
     4.8602   4.8603   4.8787   4.8787   4.8828   4.8873   4.9959   5.1365
     5.3141   5.3585   5.4535   5.4535   5.5534   5.6033   5.6035   5.6478
     5.8292   5.8527   5.8844   5.9197   6.2625   6.2827   6.3035   6.3697
     6.4078   6.5076   6.5076   6.6525   6.9212   6.9212   6.9855   6.9855
     6.9892   6.9892   7.0845   7.1076   7.2190   7.2465   7.2735   7.3177
     7.3463   7.3463   7.3790   7.3925   7.3925   7.4593   7.4988   7.4988

          k = 0.2500 0.3750 0.0000 (153086 PWs)   bands (ev):

  -111.3835-111.3833-111.3830-111.3827-111.3826-111.3826-111.3826-111.3825
  -111.3824-111.3821-111.3819-111.3816-110.9510-110.9508-110.9506-110.9503
  -110.9503-110.9502-110.9502-110.9502-110.9501-110.9498-110.9497-110.9495
   -68.7829 -68.7827 -68.7826 -68.7825 -68.7822 -68.7821 -68.7821 -68.7820
   -68.7820 -68.7820 -68.7819 -68.7819 -68.7818 -68.7817 -68.7814 -68.7813
   -68.7811 -68.7809 -68.7807 -68.7806 -68.7801 -68.7795 -68.7790 -68.7786
   -68.7779 -68.7775 -68.7770 -68.7764 -68.7759 -68.7757 -68.7751 -68.7746
   -68.7745 -68.7743 -68.7742 -68.7738 -68.3885 -68.3881 -68.3881 -68.3878
   -68.3877 -68.3870 -68.3866 -68.3865 -68.3860 -68.3853 -68.3849 -68.3844
   -68.3838 -68.3834 -68.3829 -68.3823 -68.3817 -68.3816 -68.3812 -68.3805
   -68.3804 -68.3802 -68.3801 -68.3798 -68.3232 -68.3230 -68.3228 -68.3225
   -68.3224 -68.3223 -68.3223 -68.3222 -68.3221 -68.3219 -68.3217 -68.3215
   -49.3544 -49.3496 -49.3473 -49.3465 -49.3462 -49.3377 -49.3345 -49.3334
   -49.3278 -49.3201 -49.3153 -49.3138 -49.3118 -49.3103 -49.3094 -49.3085
   -49.3084 -49.3070 -49.3055 -49.3043 -49.3042 -49.3037 -49.3035 -49.3012
   -49.2994 -49.2988 -49.2936 -49.2865 -49.2804 -49.2795 -49.2754 -49.2681
   -49.2673 -49.2657 -49.2645 -49.2601 -48.8050 -48.8003 -48.7982 -48.7971
   -48.7970 -48.7887 -48.7854 -48.7843 -48.7786 -48.7712 -48.7663 -48.7614
   -48.7547 -48.7500 -48.7447 -48.7378 -48.7317 -48.7308 -48.7267 -48.7196
   -48.7186 -48.7170 -48.7160 -48.7116 -48.6318 -48.6298 -48.6276 -48.6267
   -48.6266 -48.6253 -48.6238 -48.6227 -48.6225 -48.6218 -48.6196 -48.6178
    -6.3313  -5.8491  -5.2920  -5.0006  -4.9421  -4.4636  -4.3573  -4.2417
    -4.2169  -4.1765  -4.1157  -4.0881  -4.0513  -4.0407  -3.9961  -3.9832
    -3.8259  -3.7833  -3.6987  -3.6903  -3.5584  -3.5483  -3.4947  -3.4930
    -3.4789  -3.4715  -3.3481  -3.2640  -3.2596  -3.2585  -3.2576  -3.2297
    -3.2215  -3.2116  -3.1711  -3.1582  -3.1239  -3.1012  -3.0892  -3.0882
    -3.0595  -3.0375  -3.0241  -3.0095  -3.0022  -3.0002  -2.9706  -2.9494
    -2.9370  -2.9121  -2.8933  -2.8482  -2.8478  -2.8193  -2.8076  -2.7446
    -2.7217  -2.7187  -2.6906  -2.6304  -2.6097  -2.6012  -2.5908  -2.5860
    -2.5837  -2.5731  -2.5724  -2.5674  -2.5487  -2.5423  -2.5338  -2.5049
    -2.4815  -2.4781  -2.4651  -2.4542  -2.4539  -2.4351  -2.4330  -2.4308
    -2.3991  -2.3804  -2.3034  -2.2569  -2.2145  -2.2067  -2.1857  -2.1547
    -2.1547  -2.1141  -2.0986  -2.0905  -2.0328  -2.0226  -2.0219  -2.0167
    -2.0049  -1.9694  -1.9567  -1.9523  -1.8422  -1.7880  -1.7824  -1.7698
    -1.7569  -1.7537  -1.7200  -1.7145  -1.6610  -1.6562  -1.6414  -1.6364
    -1.6066  -1.5851  -1.5772  -1.5478  -1.5161  -1.5017  -1.4698  -1.4563
    -1.4522  -1.4507  -1.4478  -1.4394  -1.4364  -1.4284  -1.4283  -1.4131
    -1.3770  -1.3767  -1.3766  -1.3559  -1.3541  -1.3474  -1.3223  -1.2927
    -1.2908  -1.2843  -1.2552  -1.2518  -1.2399  -1.2259  -1.1652  -1.1588
    -1.1146  -1.0979  -1.0897  -1.0763  -1.0505  -1.0460  -1.0262  -1.0134
    -0.9922  -0.9770  -0.9641  -0.9417  -0.9377  -0.9368  -0.9324  -0.9182
    -0.9146  -0.9087  -0.9056  -0.9010  -0.8919  -0.8840  -0.8769  -0.8605
    -0.8593  -0.8591  -0.8588  -0.8499  -0.8417  -0.8210  -0.8131  -0.8111
    -0.8091  -0.7867  -0.7824  -0.7611  -0.7600  -0.7569  -0.7496  -0.7460
    -0.7431  -0.7219  -0.7160  -0.7109  -0.7089  -0.7064  -0.6947  -0.6916
    -0.6891  -0.6700  -0.6594  -0.6553  -0.6543  -0.6527  -0.6470  -0.6427
    -0.6381  -0.6183  -0.6011  -0.5786  -0.5709  -0.5611  -0.5042  -0.4866
    -0.4862  -0.4554  -0.4447  -0.4282  -0.4145  -0.3967  -0.3889  -0.3767
    -0.3676  -0.3563  -0.3526  -0.3506  -0.3452  -0.3365  -0.2934  -0.2855
    -0.2798  -0.2723  -0.2718  -0.2528  -0.2434  -0.1819  -0.1653  -0.1652
    -0.1448  -0.1244  -0.0761  -0.0731  -0.0577  -0.0152  -0.0139  -0.0055
     0.0011   0.0080   0.0227   0.0323   0.0433   0.0453   0.0740   0.0744
     0.0941   0.1170   0.1236   0.1298   0.2160   0.2723   0.4499   0.4900
     0.5203   0.9490   1.0381   1.2752   1.6049   1.6281   1.7119   1.7361
     1.7866   1.9037   1.9075   2.1177   2.1600   2.3508   2.5337   2.6400
     2.6500   2.7216   3.0386   3.1462   3.1831   3.3449   3.6018   3.7546
     3.8749   3.8804   3.9581   4.0015   4.2049   4.2871   4.3470   4.5382
     4.5423   4.5470   4.5566   4.9640   4.9805   5.0139   5.0165   5.0624
     5.1398   5.2185   5.2288   5.4431   5.4884   5.5005   5.6024   5.6959
     5.7121   5.8244   5.9458   5.9544   6.0022   6.0341   6.0554   6.0783
     6.2502   6.2850   6.3686   6.4231   6.4945   6.5139   6.5141   6.5348
     6.6035   6.7069   6.7327   6.9525   6.9719   7.0852   7.1540   7.2576
     7.2712   7.3366   7.3612   7.4040   7.4713   7.4921   7.5088   7.5236

          k = 0.2500-0.7500 0.0000 (153138 PWs)   bands (ev):

  -111.3835-111.3833-111.3830-111.3827-111.3826-111.3826-111.3825-111.3825
  -111.3824-111.3821-111.3819-111.3816-110.9510-110.9508-110.9506-110.9504
  -110.9503-110.9502-110.9502-110.9501-110.9500-110.9498-110.9497-110.9495
   -68.7829 -68.7827 -68.7825 -68.7824 -68.7824 -68.7822 -68.7821 -68.7821
   -68.7820 -68.7820 -68.7819 -68.7818 -68.7817 -68.7817 -68.7817 -68.7814
   -68.7811 -68.7809 -68.7805 -68.7805 -68.7800 -68.7799 -68.7786 -68.7785
   -68.7779 -68.7779 -68.7766 -68.7765 -68.7759 -68.7759 -68.7748 -68.7747
   -68.7744 -68.7744 -68.7741 -68.7740 -68.3883 -68.3882 -68.3879 -68.3879
   -68.3877 -68.3875 -68.3864 -68.3864 -68.3859 -68.3857 -68.3845 -68.3844
   -68.3838 -68.3837 -68.3826 -68.3824 -68.3818 -68.3818 -68.3807 -68.3805
   -68.3804 -68.3803 -68.3800 -68.3799 -68.3232 -68.3230 -68.3228 -68.3226
   -68.3225 -68.3224 -68.3223 -68.3222 -68.3220 -68.3219 -68.3217 -68.3215
   -49.3512 -49.3512 -49.3475 -49.3475 -49.3432 -49.3431 -49.3328 -49.3328
   -49.3255 -49.3254 -49.3124 -49.3117 -49.3111 -49.3110 -49.3107 -49.3101
   -49.3081 -49.3075 -49.3051 -49.3045 -49.3030 -49.3030 -49.3027 -49.3020
   -49.3013 -49.3007 -49.2881 -49.2881 -49.2815 -49.2815 -49.2703 -49.2702
   -49.2667 -49.2667 -49.2625 -49.2625 -48.8020 -48.8020 -48.7983 -48.7982
   -48.7940 -48.7940 -48.7836 -48.7836 -48.7765 -48.7765 -48.7620 -48.7620
   -48.7542 -48.7542 -48.7393 -48.7393 -48.7329 -48.7329 -48.7216 -48.7216
   -48.7181 -48.7181 -48.7139 -48.7139 -48.6303 -48.6298 -48.6288 -48.6283
   -48.6263 -48.6258 -48.6234 -48.6229 -48.6210 -48.6205 -48.6196 -48.6191
    -5.9204  -5.9196  -5.4827  -5.4820  -4.7469  -4.7462  -4.1348  -4.1344
    -4.1250  -4.1244  -4.0789  -4.0783  -4.0676  -4.0672  -3.9421  -3.9420
    -3.9295  -3.9292  -3.6316  -3.6313  -3.6078  -3.6075  -3.5198  -3.5192
    -3.4322  -3.4320  -3.3662  -3.3658  -3.2860  -3.2854  -3.2343  -3.2342
    -3.2139  -3.2138  -3.2030  -3.2028  -3.1860  -3.1854  -3.1269  -3.1264
    -3.0627  -3.0624  -3.0172  -3.0172  -3.0169  -3.0168  -2.9614  -2.9613
    -2.9348  -2.9344  -2.9042  -2.9042  -2.7708  -2.7702  -2.7605  -2.7603
    -2.7358  -2.7357  -2.6768  -2.6768  -2.6465  -2.6462  -2.5814  -2.5810
    -2.5703  -2.5701  -2.5489  -2.5488  -2.5248  -2.5245  -2.4849  -2.4847
    -2.4727  -2.4725  -2.4660  -2.4658  -2.3990  -2.3989  -2.3335  -2.3331
    -2.2795  -2.2791  -2.2761  -2.2759  -2.2646  -2.2645  -2.2368  -2.2364
    -2.1280  -2.1277  -2.0579  -2.0578  -2.0100  -2.0099  -1.9865  -1.9864
    -1.8887  -1.8883  -1.8253  -1.8251  -1.8218  -1.8218  -1.7869  -1.7868
    -1.7009  -1.7008  -1.6589  -1.6589  -1.6482  -1.6482  -1.6412  -1.6407
    -1.5559  -1.5556  -1.5538  -1.5536  -1.4773  -1.4773  -1.4469  -1.4466
    -1.4439  -1.4435  -1.4419  -1.4415  -1.4312  -1.4312  -1.3950  -1.3946
    -1.3886  -1.3884  -1.3786  -1.3784  -1.3666  -1.3665  -1.3351  -1.3349
    -1.3246  -1.3245  -1.2888  -1.2886  -1.2316  -1.2315  -1.1818  -1.1817
    -1.1278  -1.1278  -1.0733  -1.0733  -1.0690  -1.0689  -0.9929  -0.9928
    -0.9896  -0.9896  -0.9662  -0.9658  -0.9516  -0.9513  -0.9395  -0.9394
    -0.9365  -0.9364  -0.9324  -0.9322  -0.9187  -0.9187  -0.9060  -0.9056
    -0.8892  -0.8892  -0.8791  -0.8789  -0.8464  -0.8462  -0.8140  -0.8137
    -0.8059  -0.8056  -0.7808  -0.7808  -0.7678  -0.7674  -0.7447  -0.7443
    -0.7280  -0.7279  -0.7247  -0.7245  -0.7038  -0.7034  -0.7014  -0.7011
    -0.6529  -0.6528  -0.6358  -0.6356  -0.6352  -0.6351  -0.6226  -0.6223
    -0.6121  -0.6119  -0.6055  -0.6054  -0.5837  -0.5833  -0.5805  -0.5802
    -0.5418  -0.5416  -0.4991  -0.4990  -0.4943  -0.4942  -0.4870  -0.4869
    -0.4505  -0.4504  -0.3563  -0.3561  -0.3400  -0.3398  -0.3244  -0.3243
    -0.2792  -0.2790  -0.2642  -0.2640  -0.2472  -0.2470  -0.2341  -0.2337
    -0.2116  -0.2112  -0.0874  -0.0871  -0.0328  -0.0328   0.0237   0.0240
     0.0313   0.0314   0.0503   0.0506   0.0542   0.0542   0.0771   0.0771
     0.1595   0.1597   0.1976   0.1979   0.2395   0.2396   0.8871   0.8874
     0.9184   0.9187   1.1809   1.1813   1.3400   1.3401   1.4572   1.4577
     1.9971   1.9976   2.0508   2.0509   2.7857   2.7860   2.9876   2.9879
     3.1203   3.1207   3.3153   3.3157   3.3827   3.3829   3.4643   3.4645
     3.5189   3.5193   3.5488   3.5492   3.8904   3.8905   4.3510   4.3510
     4.4391   4.4393   4.9437   4.9439   5.1020   5.1022   5.1751   5.1753
     5.3689   5.3690   5.3716   5.3717   5.4163   5.4164   5.6023   5.6024
     5.7127   5.7127   5.7266   5.7267   5.7405   5.7410   5.8369   5.8370
     5.8925   5.8927   5.9020   5.9021   6.4259   6.4261   6.4267   6.4268
     6.4653   6.4654   6.7763   6.7764   6.8070   6.8071   6.9142   6.9142
     6.9290   6.9291   7.2236   7.2238   7.5242   7.5243   7.7438   7.7439

          k =-0.5000 0.0000 0.0000 (153112 PWs)   bands (ev):

  -111.3835-111.3833-111.3830-111.3827-111.3826-111.3826-111.3826-111.3825
  -111.3825-111.3821-111.3819-111.3816-110.9510-110.9508-110.9506-110.9503
  -110.9502-110.9502-110.9502-110.9502-110.9501-110.9498-110.9496-110.9495
   -68.7829 -68.7827 -68.7827 -68.7827 -68.7825 -68.7820 -68.7820 -68.7820
   -68.7819 -68.7819 -68.7818 -68.7818 -68.7817 -68.7816 -68.7814 -68.7814
   -68.7811 -68.7809 -68.7804 -68.7804 -68.7803 -68.7803 -68.7784 -68.7784
   -68.7781 -68.7781 -68.7761 -68.7761 -68.7760 -68.7760 -68.7750 -68.7749
   -68.7748 -68.7746 -68.7737 -68.7737 -68.3886 -68.3885 -68.3879 -68.3877
   -68.3871 -68.3870 -68.3864 -68.3863 -68.3863 -68.3862 -68.3845 -68.3845
   -68.3837 -68.3837 -68.3820 -68.3820 -68.3819 -68.3819 -68.3812 -68.3811
   -68.3805 -68.3803 -68.3797 -68.3797 -68.3232 -68.3230 -68.3228 -68.3224
   -68.3224 -68.3223 -68.3223 -68.3223 -68.3222 -68.3219 -68.3217 -68.3215
   -49.3557 -49.3557 -49.3421 -49.3419 -49.3411 -49.3409 -49.3313 -49.3313
   -49.3312 -49.3312 -49.3137 -49.3135 -49.3071 -49.3071 -49.3070 -49.3069
   -49.3068 -49.3066 -49.3064 -49.3064 -49.3063 -49.3063 -49.3060 -49.3056
   -49.2997 -49.2995 -49.2830 -49.2829 -49.2828 -49.2828 -49.2722 -49.2720
   -49.2712 -49.2710 -49.2590 -49.2590 -48.8063 -48.8063 -48.7934 -48.7932
   -48.7916 -48.7915 -48.7822 -48.7821 -48.7821 -48.7821 -48.7593 -48.7593
   -48.7569 -48.7569 -48.7343 -48.7343 -48.7342 -48.7342 -48.7239 -48.7237
   -48.7221 -48.7220 -48.7105 -48.7105 -48.6316 -48.6315 -48.6251 -48.6248
   -48.6247 -48.6247 -48.6246 -48.6246 -48.6244 -48.6241 -48.6180 -48.6179
    -6.2838  -6.2836  -4.6155  -4.6154  -4.4920  -4.4919  -4.4918  -4.4917
    -4.3205  -4.3204  -4.3147  -4.3147  -4.2243  -4.2242  -3.8758  -3.8758
    -3.7094  -3.7093  -3.7093  -3.7092  -3.6759  -3.6758  -3.4956  -3.4956
    -3.4499  -3.4498  -3.3126  -3.3125  -3.2376  -3.2374  -3.2052  -3.2050
    -3.0823  -3.0823  -3.0780  -3.0780  -3.0654  -3.0653  -3.0653  -3.0653
    -2.9970  -2.9970  -2.9592  -2.9592  -2.9502  -2.9501  -2.9501  -2.9500
    -2.9327  -2.9326  -2.8852  -2.8851  -2.7686  -2.7685  -2.7443  -2.7443
    -2.7443  -2.7442  -2.7215  -2.7215  -2.7042  -2.7042  -2.6662  -2.6662
    -2.6480  -2.6480  -2.6480  -2.6479  -2.5880  -2.5879  -2.5657  -2.5656
    -2.5612  -2.5611  -2.5127  -2.5127  -2.5127  -2.5126  -2.5090  -2.5090
    -2.3216  -2.3216  -2.2307  -2.2307  -2.1791  -2.1790  -2.0704  -2.0704
    -2.0396  -2.0396  -2.0395  -2.0395  -2.0091  -2.0090  -1.9970  -1.9970
    -1.9668  -1.9667  -1.9043  -1.9043  -1.8883  -1.8883  -1.8883  -1.8882
    -1.8245  -1.8245  -1.7488  -1.7487  -1.7380  -1.7379  -1.6567  -1.6567
    -1.6566  -1.6566  -1.6556  -1.6556  -1.5824  -1.5823  -1.5255  -1.5255
    -1.4444  -1.4444  -1.4326  -1.4325  -1.4324  -1.4324  -1.4274  -1.4274
    -1.4239  -1.4238  -1.3108  -1.3108  -1.2864  -1.2864  -1.2770  -1.2770
    -1.2688  -1.2688  -1.2428  -1.2428  -1.2428  -1.2428  -1.2078  -1.2078
    -1.1599  -1.1599  -1.1598  -1.1598  -1.0576  -1.0576  -0.9774  -0.9773
    -0.9702  -0.9702  -0.9701  -0.9701  -0.9295  -0.9295  -0.9200  -0.9198
    -0.9143  -0.9142  -0.8903  -0.8903  -0.8515  -0.8514  -0.8514  -0.8513
    -0.8158  -0.8158  -0.7734  -0.7733  -0.7708  -0.7707  -0.7681  -0.7681
    -0.7660  -0.7660  -0.7634  -0.7633  -0.7560  -0.7560  -0.7560  -0.7560
    -0.7407  -0.7405  -0.7082  -0.7082  -0.7024  -0.7024  -0.6958  -0.6957
    -0.6856  -0.6856  -0.6856  -0.6855  -0.6041  -0.6041  -0.5966  -0.5966
    -0.5884  -0.5884  -0.5878  -0.5878  -0.5600  -0.5600  -0.5319  -0.5319
    -0.5319  -0.5319  -0.4733  -0.4733  -0.4166  -0.4165  -0.3828  -0.3828
    -0.3827  -0.3827  -0.3222  -0.3221  -0.3034  -0.3034  -0.2390  -0.2390
    -0.2284  -0.2284  -0.2284  -0.2283  -0.1940  -0.1938  -0.1471  -0.1469
    -0.0511  -0.0511  -0.0410  -0.0409  -0.0324  -0.0324  -0.0323  -0.0323
    -0.0318  -0.0318   0.0224   0.0225   0.0839   0.0839   0.1288   0.1288
     0.2108   0.2108   0.2399   0.2400   0.5730   0.5730   0.5854   0.5856
     0.6232   0.6233   0.6233   0.6234   1.4627   1.4627   1.5236   1.5236
     1.5469   1.5470   1.6363   1.6363   2.5433   2.5433   2.5865   2.5866
     2.5866   2.5867   2.7031   2.7032   3.3653   3.3655   3.6400   3.6400
     3.9498   3.9499   4.3876   4.3877   4.3877   4.3878   4.5851   4.5852
     4.7378   4.7378   4.8658   4.8658   4.8827   4.8827   4.8828   4.8828
     5.0106   5.0106   5.0614   5.0615   6.0216   6.0216   6.0527   6.0527
     6.1015   6.1016   6.1460   6.1460   6.1461   6.1461   6.1901   6.1902
     6.4002   6.4003   6.4683   6.4683   6.7567   6.7568   6.7568   6.7568
     6.9046   6.9046   6.9465   6.9465   7.1345   7.1345   7.1346   7.1346
     7.1413   7.1415   7.2397   7.2398   7.2398   7.2398   7.4115   7.4117

          k =-0.5000 0.3750 0.0000 (153072 PWs)   bands (ev):

  -111.3835-111.3833-111.3830-111.3827-111.3826-111.3826-111.3826-111.3825
  -111.3824-111.3821-111.3819-111.3816-110.9510-110.9508-110.9506-110.9503
  -110.9503-110.9502-110.9502-110.9502-110.9501-110.9498-110.9496-110.9495
   -68.7829 -68.7827 -68.7825 -68.7824 -68.7824 -68.7822 -68.7822 -68.7821
   -68.7820 -68.7820 -68.7819 -68.7818 -68.7817 -68.7816 -68.7816 -68.7814
   -68.7811 -68.7809 -68.7804 -68.7803 -68.7799 -68.7799 -68.7790 -68.7790
   -68.7774 -68.7774 -68.7766 -68.7766 -68.7761 -68.7761 -68.7748 -68.7748
   -68.7743 -68.7743 -68.7740 -68.7740 -68.3882 -68.3882 -68.3881 -68.3880
   -68.3875 -68.3874 -68.3862 -68.3861 -68.3858 -68.3858 -68.3849 -68.3849
   -68.3833 -68.3833 -68.3824 -68.3824 -68.3821 -68.3820 -68.3808 -68.3808
   -68.3802 -68.3801 -68.3800 -68.3800 -68.3232 -68.3230 -68.3228 -68.3225
   -68.3224 -68.3223 -68.3223 -68.3222 -68.3221 -68.3219 -68.3217 -68.3215
   -49.3520 -49.3520 -49.3482 -49.3481 -49.3427 -49.3427 -49.3297 -49.3297
   -49.3256 -49.3256 -49.3160 -49.3160 -49.3131 -49.3130 -49.3091 -49.3089
   -49.3069 -49.3064 -49.3062 -49.3056 -49.3038 -49.3036 -49.3002 -49.3000
   -49.2981 -49.2981 -49.2885 -49.2885 -49.2837 -49.2837 -49.2712 -49.2712
   -49.2650 -49.2650 -49.2626 -49.2626 -48.8026 -48.8026 -48.7990 -48.7990
   -48.7935 -48.7935 -48.7807 -48.7807 -48.7765 -48.7765 -48.7670 -48.7670
   -48.7493 -48.7493 -48.7398 -48.7398 -48.7349 -48.7349 -48.7226 -48.7226
   -48.7164 -48.7164 -48.7141 -48.7141 -48.6311 -48.6310 -48.6273 -48.6272
   -48.6251 -48.6246 -48.6246 -48.6241 -48.6221 -48.6220 -48.6185 -48.6184
    -6.1469  -6.1467  -5.1536  -5.1534  -4.5419  -4.5419  -4.3128  -4.3128
    -4.2599  -4.2598  -4.1519  -4.1518  -4.0402  -4.0401  -3.9071  -3.9070
    -3.8725  -3.8725  -3.6396  -3.6396  -3.6225  -3.6224  -3.5746  -3.5745
    -3.4252  -3.4252  -3.3824  -3.3822  -3.2225  -3.2224  -3.2187  -3.2187
    -3.1942  -3.1942  -3.1009  -3.1008  -3.0967  -3.0967  -3.0779  -3.0779
    -3.0322  -3.0322  -2.9937  -2.9936  -2.9911  -2.9911  -2.9749  -2.9749
    -2.9080  -2.9080  -2.9057  -2.9056  -2.8366  -2.8365  -2.7797  -2.7797
    -2.7717  -2.7717  -2.6498  -2.6498  -2.6325  -2.6325  -2.5842  -2.5842
    -2.5824  -2.5823  -2.5808  -2.5807  -2.5802  -2.5801  -2.5480  -2.5480
    -2.5227  -2.5227  -2.4808  -2.4808  -2.4188  -2.4188  -2.4187  -2.4186
    -2.4174  -2.4173  -2.2481  -2.2480  -2.1431  -2.1430  -2.0562  -2.0561
    -2.0481  -2.0481  -2.0228  -2.0227  -2.0030  -2.0030  -1.9878  -1.9878
    -1.9823  -1.9823  -1.9431  -1.9431  -1.8753  -1.8753  -1.8628  -1.8627
    -1.8613  -1.8613  -1.7382  -1.7382  -1.6974  -1.6974  -1.6588  -1.6587
    -1.6454  -1.6453  -1.5712  -1.5712  -1.5388  -1.5388  -1.4924  -1.4924
    -1.4479  -1.4478  -1.4338  -1.4338  -1.4119  -1.4118  -1.4038  -1.4038
    -1.3728  -1.3728  -1.3565  -1.3565  -1.3436  -1.3435  -1.2874  -1.2874
    -1.2674  -1.2673  -1.2461  -1.2461  -1.2074  -1.2074  -1.1827  -1.1827
    -1.1695  -1.1695  -1.0910  -1.0910  -0.9976  -0.9976  -0.9947  -0.9947
    -0.9930  -0.9930  -0.9846  -0.9845  -0.9816  -0.9816  -0.9359  -0.9359
    -0.9267  -0.9266  -0.9138  -0.9138  -0.8961  -0.8961  -0.8724  -0.8724
    -0.8405  -0.8404  -0.8344  -0.8343  -0.8320  -0.8319  -0.8127  -0.8127
    -0.7850  -0.7850  -0.7422  -0.7420  -0.7407  -0.7407  -0.7366  -0.7366
    -0.7242  -0.7241  -0.7167  -0.7167  -0.6993  -0.6992  -0.6922  -0.6921
    -0.6902  -0.6902  -0.6851  -0.6849  -0.6762  -0.6762  -0.6355  -0.6354
    -0.6096  -0.6095  -0.5775  -0.5775  -0.5675  -0.5675  -0.5215  -0.5215
    -0.4407  -0.4407  -0.4406  -0.4406  -0.3889  -0.3889  -0.3782  -0.3781
    -0.3755  -0.3755  -0.3304  -0.3303  -0.3072  -0.3071  -0.2973  -0.2973
    -0.2920  -0.2920  -0.2890  -0.2889  -0.2661  -0.2661  -0.1984  -0.1983
    -0.1321  -0.1321  -0.0326  -0.0326  -0.0287  -0.0286  -0.0273  -0.0272
     0.0186   0.0187   0.0719   0.0719   0.0791   0.0791   0.1028   0.1029
     0.1186   0.1186   0.1693   0.1694   0.2353   0.2354   0.6017   0.6017
     0.6682   0.6683   0.8940   0.8940   1.6462   1.6463   1.7336   1.7337
     1.8552   1.8553   2.0824   2.0824   2.3916   2.3916   2.5689   2.5689
     2.5911   2.5912   2.8448   2.8450   3.4984   3.4985   3.7455   3.7455
     3.7988   3.7989   3.9515   3.9516   4.1165   4.1165   4.7185   4.7185
     4.8007   4.8007   4.8140   4.8141   5.0115   5.0115   5.0756   5.0757
     5.1276   5.1276   5.1453   5.1454   5.1938   5.1938   5.4970   5.4971
     5.7734   5.7734   6.1171   6.1172   6.1801   6.1802   6.1819   6.1819
     6.1925   6.1926   6.2359   6.2360   6.2448   6.2449   6.4830   6.4830
     6.7871   6.7871   7.0481   7.0481   7.0483   7.0484   7.0978   7.0979
     7.2042   7.2042   7.2882   7.2883   7.2932   7.2932   7.6007   7.7140

          k =-0.5000-0.7500 0.0000 (153068 PWs)   bands (ev):

  -111.3835-111.3833-111.3830-111.3827-111.3826-111.3826-111.3826-111.3825
  -111.3824-111.3821-111.3819-111.3816-110.9509-110.9508-110.9506-110.9504
  -110.9503-110.9502-110.9502-110.9501-110.9500-110.9498-110.9497-110.9495
   -68.7829 -68.7827 -68.7825 -68.7823 -68.7822 -68.7822 -68.7822 -68.7821
   -68.7821 -68.7819 -68.7819 -68.7818 -68.7817 -68.7817 -68.7817 -68.7814
   -68.7811 -68.7811 -68.7810 -68.7809 -68.7790 -68.7790 -68.7789 -68.7789
   -68.7775 -68.7775 -68.7775 -68.7775 -68.7754 -68.7754 -68.7748 -68.7748
   -68.7743 -68.7743 -68.7743 -68.7742 -68.3881 -68.3881 -68.3880 -68.3880
   -68.3875 -68.3874 -68.3870 -68.3870 -68.3849 -68.3849 -68.3848 -68.3847
   -68.3835 -68.3834 -68.3834 -68.3833 -68.3813 -68.3812 -68.3808 -68.3807
   -68.3802 -68.3802 -68.3801 -68.3801 -68.3232 -68.3230 -68.3228 -68.3226
   -68.3225 -68.3223 -68.3223 -68.3222 -68.3221 -68.3219 -68.3217 -68.3215
   -49.3486 -49.3486 -49.3486 -49.3486 -49.3417 -49.3417 -49.3410 -49.3410
   -49.3145 -49.3145 -49.3145 -49.3144 -49.3118 -49.3117 -49.3112 -49.3110
   -49.3069 -49.3063 -49.3063 -49.3056 -49.3020 -49.3018 -49.3013 -49.3011
   -49.2993 -49.2993 -49.2993 -49.2993 -49.2733 -49.2733 -49.2726 -49.2726
   -49.2650 -49.2649 -49.2649 -49.2649 -48.7994 -48.7994 -48.7994 -48.7994
   -48.7924 -48.7923 -48.7919 -48.7919 -48.7656 -48.7656 -48.7656 -48.7656
   -48.7504 -48.7504 -48.7504 -48.7504 -48.7246 -48.7246 -48.7241 -48.7241
   -48.7164 -48.7164 -48.7163 -48.7163 -48.6298 -48.6297 -48.6293 -48.6292
   -48.6251 -48.6246 -48.6246 -48.6241 -48.6202 -48.6201 -48.6197 -48.6196
    -5.7518  -5.7517  -5.7511  -5.7509  -4.3866  -4.3864  -4.3861  -4.3859
    -4.1035  -4.1034  -4.1031  -4.1029  -3.9948  -3.9947  -3.9943  -3.9941
    -3.8190  -3.8190  -3.8189  -3.8188  -3.5531  -3.5531  -3.5531  -3.5530
    -3.4575  -3.4574  -3.4570  -3.4569  -3.2304  -3.2303  -3.2300  -3.2299
    -3.1786  -3.1786  -3.1784  -3.1783  -3.1531  -3.1530  -3.1525  -3.1524
    -3.0626  -3.0626  -3.0625  -3.0625  -2.9465  -2.9464  -2.9463  -2.9463
    -2.9297  -2.9296  -2.9294  -2.9293  -2.7218  -2.7217  -2.7217  -2.7216
    -2.7091  -2.7090  -2.7089  -2.7087  -2.6553  -2.6553  -2.6551  -2.6551
    -2.6049  -2.6048  -2.6045  -2.6044  -2.5000  -2.4997  -2.4996  -2.4994
    -2.4350  -2.4350  -2.4349  -2.4349  -2.3216  -2.3216  -2.3215  -2.3215
    -2.2403  -2.2403  -2.2400  -2.2400  -2.1824  -2.1823  -2.1822  -2.1821
    -2.1671  -2.1671  -2.1670  -2.1670  -2.0378  -2.0377  -2.0374  -2.0373
    -1.9269  -1.9269  -1.9269  -1.9269  -1.7860  -1.7860  -1.7858  -1.7857
    -1.7461  -1.7460  -1.7460  -1.7459  -1.6657  -1.6656  -1.6656  -1.6656
    -1.5361  -1.5360  -1.5360  -1.5360  -1.4630  -1.4630  -1.4627  -1.4627
    -1.4272  -1.4271  -1.4271  -1.4270  -1.4103  -1.4102  -1.4099  -1.4098
    -1.3752  -1.3751  -1.3750  -1.3749  -1.3484  -1.3484  -1.3483  -1.3483
    -1.2798  -1.2797  -1.2796  -1.2795  -1.1579  -1.1579  -1.1578  -1.1578
    -1.0834  -1.0834  -1.0834  -1.0834  -1.0098  -1.0097  -1.0097  -1.0096
    -0.9810  -0.9810  -0.9807  -0.9806  -0.9721  -0.9721  -0.9720  -0.9719
    -0.9456  -0.9456  -0.9454  -0.9453  -0.9200  -0.9200  -0.9199  -0.9199
    -0.9044  -0.9044  -0.9044  -0.9043  -0.8692  -0.8692  -0.8692  -0.8691
    -0.8128  -0.8127  -0.8126  -0.8126  -0.7431  -0.7431  -0.7429  -0.7428
    -0.7220  -0.7219  -0.7217  -0.7217  -0.6810  -0.6809  -0.6808  -0.6807
    -0.6664  -0.6663  -0.6661  -0.6661  -0.6056  -0.6056  -0.6055  -0.6055
    -0.6005  -0.6005  -0.6004  -0.6003  -0.5291  -0.5290  -0.5289  -0.5288
    -0.5118  -0.5118  -0.5117  -0.5116  -0.5038  -0.5037  -0.5036  -0.5035
    -0.4091  -0.4091  -0.4090  -0.4090  -0.3329  -0.3329  -0.3326  -0.3326
    -0.2675  -0.2675  -0.2672  -0.2672  -0.2428  -0.2427  -0.2427  -0.2425
    -0.1102  -0.1102  -0.1102  -0.1101  -0.0263  -0.0262  -0.0262  -0.0262
    -0.0254  -0.0253  -0.0251  -0.0250   0.0725   0.0725   0.0726   0.0726
     0.1280   0.1281   0.1283   0.1283   0.6871   0.6871   0.6876   0.6876
     0.9980   0.9982   0.9984   0.9986   1.2034   1.2035   1.2037   1.2038
     2.6169   2.6169   2.6173   2.6173   2.6686   2.6687   2.6690   2.6691
     3.1685   3.1687   3.1688   3.1689   3.2708   3.2709   3.2711   3.2712
     3.3382   3.3383   3.3384   3.3386   4.5545   4.5545   4.5546   4.5546
     4.5559   4.5559   4.5564   4.5565   5.1109   5.1110   5.1111   5.1111
     5.2444   5.2445   5.2446   5.2446   5.4534   5.4534   5.4535   5.4535
     5.5418   5.5418   5.5419   5.5419   5.5886   5.5887   5.5888   5.5888
     6.5762   6.5762   6.5763   6.5763   6.5820   6.5821   6.5824   6.5824
     6.6138   6.6138   6.6138   6.6139   6.8227   6.8227   6.8228   6.8228
     6.9855   6.9855   6.9856   6.9857   7.3465   7.3466   7.3466   7.3466

     the Fermi energy is     0.2475 ev

!    total energy              =  -14458.50567391 Ry
     estimated scf accuracy    <          6.4E-11 Ry
     smearing contrib. (-TS)   =       0.02350481 Ry
     internal energy E=F+TS    =  -14458.52917872 Ry

     The total energy is F=E-TS. E is the sum of the following terms:
     one-electron contribution = -127819.92307186 Ry
     hartree contribution      =   64017.93759149 Ry
     xc contribution           =   -1683.10465726 Ry
     ewald contribution        =   51026.56095891 Ry

     convergence has been achieved in  56 iterations

     negative rho (up, down):  1.880E+00 0.000E+00

     Forces acting on atoms (cartesian axes, Ry/au):

     atom    1 type  2   force =     0.00000000   -0.00000046    0.00455212
     atom    2 type  2   force =    -0.00000013    0.00000000    0.00455310
     atom    3 type  2   force =     0.00000000    0.00000046    0.00455212
     atom    4 type  2   force =     0.00000073    0.00000000    0.00455183
     atom    5 type  2   force =     0.00000037   -0.00000016    0.00455266
     atom    6 type  2   force =     0.00000000    0.00000000    0.00455116
     atom    7 type  2   force =     0.00000037    0.00000016    0.00455266
     atom    8 type  2   force =     0.00000000    0.00000000    0.00455369
     atom    9 type  2   force =    -0.00000037   -0.00000016    0.00455266
     atom   10 type  2   force =     0.00000013    0.00000000    0.00455310
     atom   11 type  2   force =    -0.00000037    0.00000016    0.00455266
     atom   12 type  2   force =    -0.00000073    0.00000000    0.00455183
     atom   13 type  1   force =     0.00000000    0.00000000   -0.00717370
     atom   14 type  1   force =     0.00000264   -0.00000357   -0.00717329
     atom   15 type  2   force =     0.00000000   -0.00000053    0.01296485
     atom   16 type  2   force =     0.00000142    0.00000000    0.01296625
     atom   17 type  1   force =     0.00000000    0.00000000   -0.00717558
     atom   18 type  1   force =     0.00000264    0.00000357   -0.00717329
     atom   19 type  2   force =     0.00000000    0.00000053    0.01296485
     atom   20 type  2   force =     0.00000012    0.00000000    0.01296540
     atom   21 type  1   force =    -0.00000002    0.00000000   -0.00717033
     atom   22 type  1   force =     0.00000000    0.00000119   -0.00717051
     atom   23 type  2   force =     0.00000140   -0.00000120    0.01296646
     atom   24 type  2   force =     0.00000000    0.00000000    0.01296404
     atom   25 type  1   force =     0.00000477    0.00000000   -0.00717205
     atom   26 type  1   force =     0.00000000   -0.00000119   -0.00717051
     atom   27 type  2   force =     0.00000140    0.00000120    0.01296646
     atom   28 type  2   force =     0.00000000    0.00000000    0.01296815
     atom   29 type  1   force =     0.00000002    0.00000000   -0.00717033
     atom   30 type  1   force =    -0.00000264   -0.00000357   -0.00717329
     atom   31 type  2   force =    -0.00000140   -0.00000120    0.01296646
     atom   32 type  2   force =    -0.00000142    0.00000000    0.01296625
     atom   33 type  1   force =    -0.00000477    0.00000000   -0.00717205
     atom   34 type  1   force =    -0.00000264    0.00000357   -0.00717329
     atom   35 type  2   force =    -0.00000140    0.00000120    0.01296646
     atom   36 type  2   force =    -0.00000012    0.00000000    0.01296540
     atom   37 type  1   force =     0.00000000    0.00000000   -0.01034573
     atom   38 type  1   force =     0.00000297   -0.00000297   -0.01034497
     atom   39 type  1   force =     0.00000000    0.00000000   -0.01034215
     atom   40 type  1   force =     0.00000297    0.00000297   -0.01034497
     atom   41 type  1   force =     0.00000169    0.00000000   -0.01034742
     atom   42 type  1   force =     0.00000000   -0.00000048   -0.01034825
     atom   43 type  1   force =     0.00000403    0.00000000   -0.01034663
     atom   44 type  1   force =     0.00000000    0.00000048   -0.01034825
     atom   45 type  1   force =    -0.00000169    0.00000000   -0.01034742
     atom   46 type  1   force =    -0.00000297   -0.00000297   -0.01034497
     atom   47 type  1   force =    -0.00000403    0.00000000   -0.01034663
     atom   48 type  1   force =    -0.00000297    0.00000297   -0.01034497

     Total force =     0.062603     Total SCF correction =     0.000046


     Computing stress (Cartesian axis) and pressure


     negative rho (up, down):  1.880E+00 0.000E+00
          total   stress  (Ry/bohr**3)                   (kbar)     P=      -11.50
  -0.00010496   0.00000000   0.00000000          -15.44        0.00        0.00
   0.00000000  -0.00010611   0.00000000            0.00      -15.61        0.00
   0.00000000   0.00000000  -0.00002345            0.00        0.00       -3.45


     BFGS Geometry Optimization

     number of scf cycles    =   1
     number of bfgs steps    =   0

     energy   new            =  -14458.5056739092 Ry

     new trust radius        =       0.0129681535 bohr
     new conv_thr            =            1.0E-10 Ry


ATOMIC_POSITIONS (angstrom)
Pd            0.0000000000        2.1121257740        0.5243847780    0   0   0
Pd            2.1121268350        0.0000000000        0.5243830740    0   0   0
Pd            0.0000000000        6.3363845850        0.5243847780    0   0   0
Pd            2.1121234310        4.2242543590        0.5243889670    0   0   0
Pd            4.2242518740        2.1121241690        0.5243862400    0   0   0
Pd            6.3363823590        0.0000000000        0.5243967900    0   0   0
Pd            4.2242518740        6.3363861900        0.5243862400    0   0   0
Pd            6.3363823590        4.2242543590        0.5243751060    0   0   0
Pd            8.4485112030        2.1121241690        0.5243862400    0   0   0
[...]
    -2.6585  -2.6583  -2.6580  -2.6578  -2.5682  -2.5680  -2.5679  -2.5677
    -2.5012  -2.5011  -2.5011  -2.5010  -2.3832  -2.3832  -2.3831  -2.3831
    -2.2917  -2.2917  -2.2914  -2.2913  -2.2476  -2.2476  -2.2475  -2.2475
    -2.2377  -2.2376  -2.2375  -2.2374  -2.1414  -2.1413  -2.1410  -2.1409
    -1.9581  -1.9581  -1.9581  -1.9580  -1.8231  -1.8230  -1.8229  -1.8228
    -1.7907  -1.7906  -1.7904  -1.7904  -1.7001  -1.7001  -1.7000  -1.7000
    -1.5691  -1.5691  -1.5689  -1.5688  -1.5383  -1.5383  -1.5379  -1.5379
    -1.5189  -1.5188  -1.5188  -1.5187  -1.4564  -1.4562  -1.4560  -1.4559
    -1.4490  -1.4490  -1.4489  -1.4489  -1.3875  -1.3875  -1.3874  -1.3874
    -1.3226  -1.3225  -1.3224  -1.3223  -1.2293  -1.2292  -1.2292  -1.2291
    -1.1152  -1.1152  -1.1151  -1.1151  -1.0644  -1.0644  -1.0644  -1.0644
    -1.0288  -1.0287  -1.0286  -1.0286  -0.9978  -0.9978  -0.9977  -0.9977
    -0.9836  -0.9834  -0.9834  -0.9833  -0.9494  -0.9493  -0.9493  -0.9493
    -0.9112  -0.9112  -0.9112  -0.9112  -0.8900  -0.8900  -0.8900  -0.8900
    -0.7998  -0.7998  -0.7997  -0.7997  -0.7810  -0.7809  -0.7807  -0.7807
    -0.7473  -0.7472  -0.7472  -0.7472  -0.6834  -0.6833  -0.6832  -0.6832
    -0.6677  -0.6676  -0.6673  -0.6672  -0.6172  -0.6172  -0.6171  -0.6171
    -0.5878  -0.5878  -0.5877  -0.5876  -0.5552  -0.5552  -0.5550  -0.5550
    -0.5267  -0.5267  -0.5266  -0.5266  -0.5100  -0.5099  -0.5098  -0.5097
    -0.4371  -0.4371  -0.4370  -0.4370  -0.3441  -0.3441  -0.3437  -0.3437
    -0.2844  -0.2844  -0.2841  -0.2841  -0.2473  -0.2471  -0.2471  -0.2469
    -0.1165  -0.1165  -0.1165  -0.1164  -0.0431  -0.0430  -0.0427  -0.0426
    -0.0314  -0.0314  -0.0314  -0.0313   0.0437   0.0437   0.0437   0.0437
     0.1202   0.1203   0.1205   0.1205   0.6728   0.6729   0.6733   0.6734
     1.0127   1.0128   1.0130   1.0132   1.1767   1.1768   1.1770   1.1771
     2.6374   2.6375   2.6378   2.6379   2.6554   2.6555   2.6559   2.6559
     3.1715   3.1716   3.1718   3.1719   3.3052   3.3054   3.3055   3.3056
     3.3532   3.3533   3.3535   3.3536   4.5627   4.5628   4.5633   4.5634
     4.6062   4.6062   4.6062   4.6063   5.1292   5.1292   5.1293   5.1293
     5.2936   5.2937   5.2938   5.2938   5.4475   5.4475   5.4475   5.4475
     5.5562   5.5562   5.5563   5.5563   5.6039   5.6039   5.6040   5.6040
     6.5855   6.5855   6.5855   6.5856   6.6034   6.6035   6.6038   6.6038
     6.6229   6.6230   6.6230   6.6231   6.8009   6.8009   6.8010   6.8010
     7.0163   7.0163   7.0164   7.0164   7.3580   7.3580   7.3581   7.3581

     the Fermi energy is     0.2308 ev

!    total energy              =  -14458.51603513 Ry
     estimated scf accuracy    <          3.1E-13 Ry
     smearing contrib. (-TS)   =       0.02366043 Ry
     internal energy E=F+TS    =  -14458.53969556 Ry

     The total energy is F=E-TS. E is the sum of the following terms:
     one-electron contribution = -128533.00067188 Ry
     hartree contribution      =   64373.45022747 Ry
     xc contribution           =   -1683.33871928 Ry
     ewald contribution        =   51384.34946813 Ry

     convergence has been achieved in  11 iterations

     negative rho (up, down):  1.881E+00 0.000E+00

     Forces acting on atoms (cartesian axes, Ry/au):

     atom    1 type  2   force =     0.00000000    0.00000015   -0.00000198
     atom    2 type  2   force =    -0.00000054    0.00000000   -0.00000168
     atom    3 type  2   force =     0.00000000   -0.00000015   -0.00000198
     atom    4 type  2   force =     0.00000085    0.00000000   -0.00000114
     atom    5 type  2   force =    -0.00000032    0.00000037   -0.00000083
     atom    6 type  2   force =     0.00000000    0.00000000   -0.00000238
     atom    7 type  2   force =    -0.00000032   -0.00000037   -0.00000083
     atom    8 type  2   force =     0.00000000    0.00000000    0.00000047
     atom    9 type  2   force =     0.00000032    0.00000037   -0.00000083
     atom   10 type  2   force =     0.00000054    0.00000000   -0.00000168
     atom   11 type  2   force =     0.00000032   -0.00000037   -0.00000083
     atom   12 type  2   force =    -0.00000085    0.00000000   -0.00000114
     atom   13 type  1   force =     0.00000000    0.00000000   -0.00000006
     atom   14 type  1   force =     0.00000160    0.00000011    0.00000031
     atom   15 type  2   force =     0.00000000   -0.00000007    0.00000571
     atom   16 type  2   force =     0.00000059    0.00000000    0.00000590
     atom   17 type  1   force =     0.00000000    0.00000000   -0.00000013
     atom   18 type  1   force =     0.00000160   -0.00000011    0.00000031
     atom   19 type  2   force =     0.00000000    0.00000007    0.00000571
     atom   20 type  2   force =     0.00000045    0.00000000    0.00000581
     atom   21 type  1   force =     0.00000015    0.00000000   -0.00000010
     atom   22 type  1   force =     0.00000000    0.00000124    0.00000063
     atom   23 type  2   force =     0.00000006    0.00000036    0.00000589
     atom   24 type  2   force =     0.00000000    0.00000000    0.00000604
     atom   25 type  1   force =     0.00000085    0.00000000   -0.00000031
     atom   26 type  1   force =     0.00000000   -0.00000124    0.00000063
     atom   27 type  2   force =     0.00000006   -0.00000036    0.00000589
     atom   28 type  2   force =     0.00000000    0.00000000    0.00000553
     atom   29 type  1   force =    -0.00000015    0.00000000   -0.00000010
     atom   30 type  1   force =    -0.00000160    0.00000011    0.00000031
     atom   31 type  2   force =    -0.00000006    0.00000036    0.00000589
     atom   32 type  2   force =    -0.00000059    0.00000000    0.00000590
     atom   33 type  1   force =    -0.00000085    0.00000000   -0.00000031
     atom   34 type  1   force =    -0.00000160   -0.00000011    0.00000031
     atom   35 type  2   force =    -0.00000006   -0.00000036    0.00000589
     atom   36 type  2   force =    -0.00000045    0.00000000    0.00000581
     atom   37 type  1   force =     0.00000000    0.00000000   -0.00000539
     atom   38 type  1   force =     0.00000083    0.00000016   -0.00000451
     atom   39 type  1   force =     0.00000000    0.00000000   -0.00000445
     atom   40 type  1   force =     0.00000083   -0.00000016   -0.00000451
     atom   41 type  1   force =     0.00000047    0.00000000   -0.00000427
     atom   42 type  1   force =     0.00000000    0.00000061   -0.00000463
     atom   43 type  1   force =     0.00000040    0.00000000   -0.00000548
     atom   44 type  1   force =     0.00000000   -0.00000061   -0.00000463
     atom   45 type  1   force =    -0.00000047    0.00000000   -0.00000427
     atom   46 type  1   force =    -0.00000083    0.00000016   -0.00000451
     atom   47 type  1   force =    -0.00000040    0.00000000   -0.00000548
     atom   48 type  1   force =    -0.00000083   -0.00000016   -0.00000451

     Total force =     0.000026     Total SCF correction =     0.000003


     Computing stress (Cartesian axis) and pressure


     negative rho (up, down):  1.881E+00 0.000E+00
          total   stress  (Ry/bohr**3)                   (kbar)     P=       -8.15
  -0.00008162   0.00000000   0.00000000          -12.01        0.00        0.00
   0.00000000  -0.00008296   0.00000000            0.00      -12.20        0.00
   0.00000000   0.00000000  -0.00000156            0.00        0.00       -0.23

     Message from routine bfgs:
     history already reset at previous step: stopping

     bfgs converged in  19 scf cycles and  18 bfgs steps
     (criteria: energy <  1.0E-07 Ry, force <  1.0E-06 Ry/Bohr)

     End of BFGS Geometry Optimization

     Final energy   =  -14458.5160351296 Ry

     File /users/aafshar4/scratch/CuPd_rlx_1st_PBE.bfgs deleted, as requested
Begin final coordinates

ATOMIC_POSITIONS (angstrom)
Pd            0.0000000000        2.1121257740        0.5243847780    0   0   0
Pd            2.1121268350        0.0000000000        0.5243830740    0   0   0
Pd            0.0000000000        6.3363845850        0.5243847780    0   0   0
Pd            2.1121234310        4.2242543590        0.5243889670    0   0   0
Pd            4.2242518740        2.1121241690        0.5243862400    0   0   0
Pd            6.3363823590        0.0000000000        0.5243967900    0   0   0
Pd            4.2242518740        6.3363861900        0.5243862400    0   0   0
Pd            6.3363823590        4.2242543590        0.5243751060    0   0   0
Pd            8.4485112030        2.1121241690        0.5243862400    0   0   0
Pd           10.5606328710        0.0000000000        0.5243830740    0   0   0
Pd            8.4485112030        6.3363861900        0.5243862400    0   0   0
Pd           10.5606412870        4.2242543590        0.5243889670    0   0   0
Cu            0.0000000000        0.0000000000        2.0252546026
Cu            2.1121182215        2.1121206167        2.0252583750
Pd            0.0000000000        2.1121236426        3.5549530620
Pd            2.1121164370        0.0000000000        3.5549537808
Cu            0.0000000000        4.2242543590        2.0252610569
Cu            2.1121182215        6.3363897423        2.0252583750
Pd            0.0000000000        6.3363867164        3.5549530620
Pd            2.1121241167        4.2242543590        3.5549480944
Cu            4.2242464833        0.0000000000        2.0252623363
Cu            6.3363823590        2.1121288970        2.0252574280
Pd            4.2242495136        2.1121267266        3.5549495349
Pd            6.3363823590        0.0000000000        3.5549394611
Cu            4.2242563388        4.2242543590        2.0252602689
Cu            6.3363823590        6.3363814620        2.0252574280
Pd            4.2242495136        6.3363836324        3.5549495349
Pd            6.3363823590        4.2242543590        3.5549601155
Cu            8.4485165937        0.0000000000        2.0252623363
Cu           10.5606464965        2.1121206167        2.0252583750
Pd            8.4485135634        2.1121267266        3.5549495349
Pd           10.5606432690        0.0000000000        3.5549537808
Cu            8.4485067382        4.2242543590        2.0252602689
Cu           10.5606464965        6.3363897423        2.0252583750
Pd            8.4485135634        6.3363836324        3.5549495349
Pd           10.5606406013        4.2242543590        3.5549480944
Cu            0.0000000000        0.0000000000        5.0176965776
Cu            2.1121208105        2.1121269832        5.0176886260
Cu            0.0000000000        4.2242543590        5.0176883865
Cu            2.1121208105        6.3363833758        5.0176886260
Cu            4.2242522267        0.0000000000        5.0176790448
Cu            6.3363823590        2.1121152916        5.0176822186
Cu            4.2242457444        4.2242543590        5.0176905321
Cu            6.3363823590        6.3363950674        5.0176822186
Cu            8.4485108503        0.0000000000        5.0176790448
Cu           10.5606439075        2.1121269832        5.0176886260
Cu            8.4485173326        4.2242543590        5.0176905321
Cu           10.5606439075        6.3363833758        5.0176886260
End final coordinates



     Writing output data file /users/aafshar4/scratch/CuPd_rlx_1st_PBE.save/
 
     init_run     :     39.47s CPU     43.63s WALL (       1 calls)
     electrons    :  34728.29s CPU  36247.30s WALL (      19 calls)
     update_pot   :     37.75s CPU     40.64s WALL (      18 calls)
     forces       :    235.23s CPU    255.84s WALL (      19 calls)
     stress       :   2912.34s CPU   2993.07s WALL (      19 calls)

     Called by init_run:
     wfcinit      :     30.41s CPU     33.83s WALL (       1 calls)
     potinit      :      1.97s CPU      2.44s WALL (       1 calls)
     hinit0       :      3.20s CPU      3.29s WALL (       1 calls)

     Called by electrons:
     c_bands      :  30848.26s CPU  32197.86s WALL (     426 calls)
     sum_band     :   3286.69s CPU   3400.72s WALL (     426 calls)
     v_of_rho     :    142.72s CPU    149.08s WALL (     441 calls)
     newd         :    384.51s CPU    431.47s WALL (     441 calls)
     mix_rho      :     59.55s CPU     62.18s WALL (     426 calls)

     Called by c_bands:
     init_us_2    :     53.07s CPU     53.51s WALL (    8019 calls)
     cegterg      :  30268.74s CPU  31612.84s WALL (    3834 calls)

     Called by *egterg:
     cdiaghg      :   7743.41s CPU   8319.58s WALL (   13782 calls)
     h_psi        :  12001.34s CPU  12549.98s WALL (   13989 calls)
     s_psi        :   1066.61s CPU   1076.18s WALL (   13989 calls)
     g_psi        :     16.14s CPU     16.23s WALL (   10146 calls)

     Called by h_psi:
     h_psi:calbec :   1694.69s CPU   1720.19s WALL (   13989 calls)
     vloc_psi     :   9211.45s CPU   9694.16s WALL (   13989 calls)
     add_vuspsi   :   1069.71s CPU   1079.04s WALL (   13989 calls)

     General routines
     calbec       :   3816.09s CPU   3883.83s WALL (   18678 calls)
     fft          :    191.81s CPU    201.57s WALL (    6192 calls)
     ffts         :     10.83s CPU     11.59s WALL (     867 calls)
     fftw         :  10829.04s CPU  11369.94s WALL (10455440 calls)
     interpolate  :     20.50s CPU     21.72s WALL (     441 calls)
 
     Parallel routines
     fft_scatt_xy :    493.97s CPU    498.05s WALL (10462499 calls)
     fft_scatt_yz :   9022.49s CPU   9549.74s WALL (10462499 calls)
 
     PWSCF        :     10h33m CPU     11h 0m WALL

 
   This run was terminated on:   3:39:12  11Oct2022            

=------------------------------------------------------------------------------=
   JOB DONE.
=------------------------------------------------------------------------------=
[1665473952.346074] [node1832:162939:0]          mpool.c:43   UCX  WARN  object 0x3364e40 was not returned to mpool ucp_requests
[1665473952.346156] [node1831:214036:0]          mpool.c:43   UCX  WARN  object 0x3d728c0 was not returned to mpool ucp_requests
[1665473952.346169] [node1831:214036:0]          mpool.c:43   UCX  WARN  object 0x3d752c0 was not returned to mpool ucp_requests
[1665473952.347663] [node1831:214038:0]          mpool.c:43   UCX  WARN  object 0x46cc340 was not returned to mpool ucp_requests
[1665473952.347674] [node1831:214038:0]          mpool.c:43   UCX  WARN  object 0x46cf440 was not returned to mpool ucp_requests
[1665473952.360245] [node1831:214033:0]          mpool.c:43   UCX  WARN  object 0x2e1b3c0 was not returned to mpool ucp_requests
[1665473952.364372] [node1831:214013:0]          mpool.c:43   UCX  WARN  object 0x3282240 was not returned to mpool ucp_requests
[1665473952.368612] [node1831:214035:0]          mpool.c:43   UCX  WARN  object 0x36468c0 was not returned to mpool ucp_requests
[1665473952.368624] [node1831:214035:0]          mpool.c:43   UCX  WARN  object 0x364d8c0 was not returned to mpool ucp_requests
[1665473952.368806] [node1831:214041:0]          mpool.c:43   UCX  WARN  object 0x413a5c0 was not returned to mpool ucp_requests
[1665473952.368818] [node1831:214041:0]          mpool.c:43   UCX  WARN  object 0x413ab00 was not returned to mpool ucp_requests
[1665473952.375260] [node1831:214020:0]          mpool.c:43   UCX  WARN  object 0x2e7a540 was not returned to mpool ucp_requests
[1665473952.375276] [node1831:214020:0]          mpool.c:43   UCX  WARN  object 0x2e7ac40 was not returned to mpool ucp_requests
[1665473952.346104] [node1832:162938:0]          mpool.c:43   UCX  WARN  object 0x3635ec0 was not returned to mpool ucp_requests
[1665473952.346115] [node1832:162938:0]          mpool.c:43   UCX  WARN  object 0x3638000 was not returned to mpool ucp_requests
[1665473952.345637] [node1832:162937:0]          mpool.c:43   UCX  WARN  object 0x4010b40 was not returned to mpool ucp_requests
[1665473952.358260] [node1832:162967:0]          mpool.c:43   UCX  WARN  object 0x2d8d600 was not returned to mpool ucp_requests
[1665473952.362567] [node1832:162954:0]          mpool.c:43   UCX  WARN  object 0x4d55d80 was not returned to mpool ucp_requests
[1665473952.362580] [node1832:162954:0]          mpool.c:43   UCX  WARN  object 0x4d5afc0 was not returned to mpool ucp_requests
[1665473952.372331] [node1832:162959:0]          mpool.c:43   UCX  WARN  object 0x32f6b00 was not returned to mpool ucp_requests
[1665473952.372342] [node1832:162959:0]          mpool.c:43   UCX  WARN  object 0x32f8a80 was not returned to mpool ucp_requests
[1665473952.380367] [node1832:162962:0]          mpool.c:43   UCX  WARN  object 0x42f0d40 was not returned to mpool ucp_requests
[1665473952.380749] [node1831:214030:0]          mpool.c:43   UCX  WARN  object 0x35db500 was not returned to mpool ucp_requests
[1665473952.380760] [node1831:214030:0]          mpool.c:43   UCX  WARN  object 0x35dcbc0 was not returned to mpool ucp_requests
[1665473952.382667] [node1831:214025:0]          mpool.c:43   UCX  WARN  object 0x420cf00 was not returned to mpool ucp_requests
[1665473952.382679] [node1831:214025:0]          mpool.c:43   UCX  WARN  object 0x4213b80 was not returned to mpool ucp_requests
[1665473952.383539] [node1831:214043:0]          mpool.c:43   UCX  WARN  object 0x41dd6c0 was not returned to mpool ucp_requests
[1665473952.383551] [node1831:214043:0]          mpool.c:43   UCX  WARN  object 0x41de140 was not returned to mpool ucp_requests
[1665473952.383994] [node1831:214027:0]          mpool.c:43   UCX  WARN  object 0x44e3dc0 was not returned to mpool ucp_requests
[1665473952.384006] [node1831:214027:0]          mpool.c:43   UCX  WARN  object 0x44e5800 was not returned to mpool ucp_requests
[1665473952.383668] [node1831:214028:0]          mpool.c:43   UCX  WARN  object 0x3193680 was not returned to mpool ucp_requests
[1665473952.384706] [node1831:214019:0]          mpool.c:43   UCX  WARN  object 0x3c71380 was not returned to mpool ucp_requests
[1665473952.384717] [node1831:214019:0]          mpool.c:43   UCX  WARN  object 0x3c73140 was not returned to mpool ucp_requests
[1665473952.383291] [node1831:214014:0]          mpool.c:43   UCX  WARN  object 0x3349fc0 was not returned to mpool ucp_requests
[1665473952.383302] [node1831:214014:0]          mpool.c:43   UCX  WARN  object 0x334ba00 was not returned to mpool ucp_requests
[1665473952.385450] [node1831:214017:0]          mpool.c:43   UCX  WARN  object 0x3d18340 was not returned to mpool ucp_requests
[1665473952.386205] [node1831:214022:0]          mpool.c:43   UCX  WARN  object 0x3e19540 was not returned to mpool ucp_requests
[1665473952.386217] [node1831:214022:0]          mpool.c:43   UCX  WARN  object 0x3e1c800 was not returned to mpool ucp_requests
[1665473952.386219] [node1831:214022:0]          mpool.c:43   UCX  WARN  object 0x3e1cb80 was not returned to mpool ucp_requests
[1665473952.383734] [node1831:214016:0]          mpool.c:43   UCX  WARN  object 0x3eb5c80 was not returned to mpool ucp_requests
[1665473952.383746] [node1831:214016:0]          mpool.c:43   UCX  WARN  object 0x3ebd000 was not returned to mpool ucp_requests
[1665473952.380910] [node1832:162946:0]          mpool.c:43   UCX  WARN  object 0x3500840 was not returned to mpool ucp_requests
[1665473952.380921] [node1832:162946:0]          mpool.c:43   UCX  WARN  object 0x3502d00 was not returned to mpool ucp_requests
[1665473952.384353] [node1832:162951:0]          mpool.c:43   UCX  WARN  object 0x327ae80 was not returned to mpool ucp_requests
[1665473952.383857] [node1832:162942:0]          mpool.c:43   UCX  WARN  object 0x44a0240 was not returned to mpool ucp_requests
[1665473952.383868] [node1832:162942:0]          mpool.c:43   UCX  WARN  object 0x44a1580 was not returned to mpool ucp_requests
[1665473952.382546] [node1832:162940:0]          mpool.c:43   UCX  WARN  object 0x379b740 was not returned to mpool ucp_requests
[1665473952.382557] [node1832:162940:0]          mpool.c:43   UCX  WARN  object 0x37a00c0 was not returned to mpool ucp_requests
