
     Program PWSCF v.6.6 starts on  9Aug2021 at 23:12:14 

     This program is part of the open-source Quantum ESPRESSO suite
     for quantum simulation of materials; please cite
         "P. Giannozzi et al., J. Phys.:Condens. Matter 21 395502 (2009);
         "P. Giannozzi et al., J. Phys.:Condens. Matter 29 465901 (2017);
          URL http://www.quantum-espresso.org", 
     in publications or presentations arising from this work. More details at
     http://www.quantum-espresso.org/quote

     Parallel version (MPI), running on    16 processors

     MPI processes distributed on     2 nodes
     R & G space division:  proc/nbgrp/npool/nimage =      16
     Fft bands division:     nmany     =       1
     Waiting for input...
     Reading input from standard input
Warning: card  &CELL ignored
Warning: card     CELL_DYNAMICS = 'BFGS', ignored
Warning: card     PRESS=0.0, ignored
Warning: card     CELL_DOFREE = '2DXY', ignored
Warning: card / ignored

     Current dimensions of program PWSCF are:
     Max number of different atomic species (ntypx) = 10
     Max number of k-points (npk) =  40000
     Max angular momentum in pseudopotentials (lmaxx) =  3

     IMPORTANT: XC functional enforced from input :
     Exchange-correlation= PBE
                           (   1   4   3   4   0   0   0)
     Any further DFT definition will be discarded
     Please, verify this is what you really want


     Subspace diagonalization in iterative solution of the eigenvalue problem:
     one sub-group per band group will be used
     scalapack distributed-memory algorithm (size of sub-group:  4*  4 procs)

     Found symmetry operation: I + (  0.1667  0.2500 -0.0000)
     This is a supercell, fractional translations are disabled
     Message from routine setup:
     using ibrav=0 with symmetry is DISCOURAGED, use correct ibrav instead
 
     Parallelization info
     --------------------
     sticks:   dense  smooth     PW     G-vecs:    dense   smooth      PW
     Min        1235     456    121               353829    79382   10866
     Max        1236     457    123               353837    79388   10870
     Sum       19763    7301   1949              5661331  1270161  173879
 


     bravais-lattice index     =            0
     lattice parameter (alat)  =      23.9481  a.u.
     unit-cell volume          =   20230.5091 (a.u.)^3
     number of atoms/cell      =           60
     number of atomic types    =            2
     number of electrons       =      1032.00
     number of Kohn-Sham states=          619
     kinetic-energy cutoff     =      60.0000  Ry
     charge density cutoff     =     650.0000  Ry
     convergence threshold     =      1.0E-10
     mixing beta               =       0.3000
     number of iterations used =            8  plain     mixing
     Exchange-correlation= PBE
                           (   1   4   3   4   0   0   0)
     nstep                     =           50


     celldm(1)=  23.948060  celldm(2)=   0.000000  celldm(3)=   0.000000
     celldm(4)=   0.000000  celldm(5)=   0.000000  celldm(6)=   0.000000

     crystal axes: (cart. coord. in units of alat)
               a(1) = (   1.000000   0.000000   0.000000 )  
               a(2) = (   0.000000   0.666667   0.000000 )  
               a(3) = (   0.000000   0.000000   2.209462 )  

     reciprocal axes: (cart. coord. in units 2 pi/alat)
               b(1) = (  1.000000  0.000000  0.000000 )  
               b(2) = (  0.000000  1.499998  0.000000 )  
               b(3) = (  0.000000  0.000000  0.452599 )  


     PseudoPot. # 1 for Cu read from file:
     ./pseudo-gbrv-pbe/cu_pbe_v1.2.uspp.F.UPF
     MD5 check sum: 6e991ff952a84172a2a52a1c1e996048
     Pseudo is Ultrasoft + core correction, Zval = 19.0
     Generated by new atomic code, or converted to UPF format
     Using radial grid of  867 points,  6 beta functions with: 
                l(1) =   0
                l(2) =   0
                l(3) =   1
                l(4) =   1
                l(5) =   2
                l(6) =   2
     Q(r) pseudized with  8 coefficients,  rinner =    1.150   1.150   1.150
                                                       1.150   1.150

     PseudoPot. # 2 for Pd read from file:
     ./pseudo-gbrv-pbe/pd_pbe_v1.4.uspp.F.UPF
     MD5 check sum: 2d733d2bc2cbfd217af676df1668a4bc
     Pseudo is Ultrasoft + core correction, Zval = 16.0
     Generated by new atomic code, or converted to UPF format
     Using radial grid of  887 points,  6 beta functions with: 
                l(1) =   0
                l(2) =   0
                l(3) =   1
                l(4) =   1
                l(5) =   2
                l(6) =   2
     Q(r) pseudized with  8 coefficients,  rinner =    1.130   1.130   1.130
                                                       1.130   1.130

     atomic species   valence    mass     pseudopotential
        Cu            19.00    63.54600     Cu( 1.00)
        Pd            16.00   106.42000     Pd( 1.00)

      4 Sym. Ops. (no inversion) found



   Cartesian axes

     site n.     atom                  positions (alat units)
         1           Cu  tau(   1) = (   0.0000000   0.0000000   0.0413789  )
         2           Cu  tau(   2) = (   0.1666667   0.1666666   0.0413786  )
         3           Pd  tau(   3) = (   0.0000000   0.1666665   0.1568001  )
         4           Pd  tau(   4) = (   0.1666666   0.0000000   0.1568000  )
         5           Cu  tau(   5) = (   0.0000000   0.3333332   0.0413786  )
         6           Cu  tau(   6) = (   0.1666667   0.5000000   0.0413786  )
         7           Pd  tau(   7) = (   0.0000000   0.5000001   0.1568001  )
         8           Pd  tau(   8) = (   0.1666663   0.3333332   0.1568005  )
         9           Cu  tau(   9) = (   0.3333339   0.0000000   0.0413785  )
        10           Cu  tau(  10) = (   0.4999999   0.1666655   0.0413789  )
        11           Pd  tau(  11) = (   0.3333330   0.1666664   0.1568002  )
        12           Pd  tau(  12) = (   0.4999999   0.0000000   0.1568011  )
        13           Cu  tau(  13) = (   0.3333328   0.3333332   0.0413785  )
        14           Cu  tau(  14) = (   0.4999999   0.5000010   0.0413789  )
        15           Pd  tau(  15) = (   0.3333330   0.5000002   0.1568002  )
        16           Pd  tau(  16) = (   0.4999999   0.3333332   0.1567994  )
        17           Cu  tau(  17) = (   0.6666657   0.0000000   0.0413785  )
        18           Cu  tau(  18) = (   0.8333331   0.1666666   0.0413786  )
        19           Pd  tau(  19) = (   0.6666666   0.1666664   0.1568002  )
        20           Pd  tau(  20) = (   0.8333328   0.0000000   0.1568000  )
        21           Cu  tau(  21) = (   0.6666669   0.3333332   0.0413785  )
        22           Cu  tau(  22) = (   0.8333331   0.5000000   0.0413786  )
        23           Pd  tau(  23) = (   0.6666666   0.5000002   0.1568002  )
        24           Pd  tau(  24) = (   0.8333335   0.3333332   0.1568005  )
        25           Cu  tau(  25) = (   0.0000000   0.0000000   0.2775113  )
        26           Cu  tau(  26) = (   0.1666663   0.1666663   0.2775116  )
        27           Pd  tau(  27) = (   0.0000000   0.1666663   0.3959486  )
        28           Pd  tau(  28) = (   0.1666662   0.0000000   0.3959483  )
        29           Cu  tau(  29) = (   0.0000000   0.3333332   0.2775119  )
        30           Cu  tau(  30) = (   0.1666663   0.5000002   0.2775116  )
        31           Pd  tau(  31) = (   0.0000000   0.5000003   0.3959486  )
        32           Pd  tau(  32) = (   0.1666668   0.3333332   0.3959482  )
        33           Cu  tau(  33) = (   0.3333332   0.0000000   0.2775119  )
        34           Cu  tau(  34) = (   0.4999999   0.1666666   0.2775115  )
        35           Pd  tau(  35) = (   0.3333329   0.1666668   0.3959479  )
        36           Pd  tau(  36) = (   0.4999999   0.0000000   0.3959482  )
        37           Cu  tau(  37) = (   0.3333336   0.3333332   0.2775111  )
        38           Cu  tau(  38) = (   0.4999999   0.5000000   0.2775115  )
        39           Pd  tau(  39) = (   0.3333329   0.4999998   0.3959479  )
        40           Pd  tau(  40) = (   0.4999999   0.3333332   0.3959478  )
        41           Cu  tau(  41) = (   0.6666664   0.0000000   0.2775119  )
        42           Cu  tau(  42) = (   0.8333335   0.1666663   0.2775116  )
        43           Pd  tau(  43) = (   0.6666667   0.1666668   0.3959479  )
        44           Pd  tau(  44) = (   0.8333332   0.0000000   0.3959483  )
        45           Cu  tau(  45) = (   0.6666661   0.3333332   0.2775111  )
        46           Cu  tau(  46) = (   0.8333335   0.5000002   0.2775116  )
        47           Pd  tau(  47) = (   0.6666667   0.4999998   0.3959479  )
        48           Pd  tau(  48) = (   0.8333330   0.3333332   0.3959482  )
        49           Pd  tau(  49) = (   0.0000000   0.0000000   0.5166590  )
        50           Pd  tau(  50) = (   0.1666667   0.1666666   0.5166590  )
        51           Pd  tau(  51) = (   0.0000000   0.3333332   0.5166590  )
        52           Pd  tau(  52) = (   0.1666667   0.5000000   0.5166590  )
        53           Pd  tau(  53) = (   0.3333339   0.0000000   0.5166590  )
        54           Pd  tau(  54) = (   0.4999999   0.1666655   0.5166590  )
        55           Pd  tau(  55) = (   0.3333328   0.3333332   0.5166590  )
        56           Pd  tau(  56) = (   0.4999999   0.5000010   0.5166590  )
        57           Pd  tau(  57) = (   0.6666657   0.0000000   0.5166590  )
        58           Pd  tau(  58) = (   0.8333331   0.1666666   0.5166590  )
        59           Pd  tau(  59) = (   0.6666669   0.3333332   0.5166590  )
        60           Pd  tau(  60) = (   0.8333331   0.5000000   0.5166590  )

     number of k points=     9  Methfessel-Paxton smearing, width (Ry)=  0.0200
                       cart. coord. in units 2pi/alat
        k(    1) = (   0.0000000   0.0000000   0.0000000), wk =   0.1250000
        k(    2) = (   0.0000000   0.3749996   0.0000000), wk =   0.2500000
        k(    3) = (   0.0000000  -0.7499991   0.0000000), wk =   0.1250000
        k(    4) = (   0.2500000   0.0000000   0.0000000), wk =   0.2500000
        k(    5) = (   0.2500000   0.3749996   0.0000000), wk =   0.5000000
        k(    6) = (   0.2500000  -0.7499991   0.0000000), wk =   0.2500000
        k(    7) = (  -0.5000000   0.0000000   0.0000000), wk =   0.1250000
        k(    8) = (  -0.5000000   0.3749996   0.0000000), wk =   0.2500000
        k(    9) = (  -0.5000000  -0.7499991   0.0000000), wk =   0.1250000

     Dense  grid:  5661331 G-vectors     FFT dimensions: ( 200, 135, 432)

     Smooth grid:  1270161 G-vectors     FFT dimensions: ( 120,  80, 270)

     Estimated max dynamical RAM per process >       2.82 GB

     Estimated total dynamical RAM >      45.16 GB

     Initial potential from superposition of free atoms

     starting charge  989.99970, renormalised to 1032.00000

     negative rho (up, down):  2.850E+00 0.000E+00
     Starting wfcs are  744 randomized atomic wfcs

     total cpu time spent up to now is       74.5 secs

     Self-consistent Calculation

     iteration #  1     ecut=    60.00 Ry     beta= 0.30
     Davidson diagonalization with overlap
     ethr =  1.00E-02,  avg # of iterations = 10.1

     negative rho (up, down):  2.745E+00 0.000E+00

     total cpu time spent up to now is      469.0 secs

     total energy              =  -12580.38025504 Ry
     estimated scf accuracy    <    8760.05509901 Ry

     iteration #  2     ecut=    60.00 Ry     beta= 0.30
     Davidson diagonalization with overlap
     ethr =  1.00E-02,  avg # of iterations = 22.0

     negative rho (up, down):  2.559E+00 0.000E+00

     total cpu time spent up to now is     2020.7 secs

     total energy              =  -15046.74330791 Ry
     estimated scf accuracy    <   81618.50507775 Ry

     iteration #  3     ecut=    60.00 Ry     beta= 0.30
     Davidson diagonalization with overlap
     ethr =  1.00E-02,  avg # of iterations = 17.9

     negative rho (up, down):  2.662E+00 0.000E+00

     total cpu time spent up to now is     3154.0 secs

     total energy              =  -16828.92984191 Ry
     estimated scf accuracy    <    9864.11882335 Ry

     iteration #  4     ecut=    60.00 Ry     beta= 0.30
     Davidson diagonalization with overlap
     ethr =  1.00E-02,  avg # of iterations = 10.3

     negative rho (up, down):  2.781E+00 0.000E+00

     total cpu time spent up to now is     3597.6 secs

     total energy              =  -16760.89264343 Ry
     estimated scf accuracy    <    3141.09362143 Ry

     iteration #  5     ecut=    60.00 Ry     beta= 0.30
     Davidson diagonalization with overlap
     ethr =  1.00E-02,  avg # of iterations =  5.0

     negative rho (up, down):  2.820E+00 0.000E+00

     total cpu time spent up to now is     3853.0 secs

     total energy              =  -16918.83723640 Ry
     estimated scf accuracy    <     737.65008513 Ry

     iteration #  6     ecut=    60.00 Ry     beta= 0.30
     Davidson diagonalization with overlap
     ethr =  1.00E-02,  avg # of iterations =  2.7

     negative rho (up, down):  2.788E+00 0.000E+00

     total cpu time spent up to now is     4039.3 secs

     total energy              =  -16909.36737544 Ry
     estimated scf accuracy    <     187.36914775 Ry

     iteration #  7     ecut=    60.00 Ry     beta= 0.30
     Davidson diagonalization with overlap
     ethr =  1.00E-02,  avg # of iterations =  2.0

     negative rho (up, down):  2.784E+00 0.000E+00

     total cpu time spent up to now is     4215.1 secs

     total energy              =  -16912.29473086 Ry
     estimated scf accuracy    <     329.29059653 Ry

     iteration #  8     ecut=    60.00 Ry     beta= 0.30
     Davidson diagonalization with overlap
     ethr =  1.00E-02,  avg # of iterations =  1.0

     negative rho (up, down):  2.787E+00 0.000E+00

     total cpu time spent up to now is     4366.6 secs

     total energy              =  -16907.79731863 Ry
     estimated scf accuracy    <     471.93129632 Ry

     iteration #  9     ecut=    60.00 Ry     beta= 0.30
     Davidson diagonalization with overlap
     ethr =  1.00E-02,  avg # of iterations =  1.0

     negative rho (up, down):  2.794E+00 0.000E+00

     total cpu time spent up to now is     4518.7 secs

     total energy              =  -16898.11760688 Ry
     estimated scf accuracy    <     631.48714324 Ry

     iteration # 10     ecut=    60.00 Ry     beta= 0.30
     Davidson diagonalization with overlap
     ethr =  1.00E-02,  avg # of iterations =  1.0

     negative rho (up, down):  2.799E+00 0.000E+00

     total cpu time spent up to now is     4670.8 secs

     total energy              =  -16874.22972243 Ry
     estimated scf accuracy    <     510.65905558 Ry

     iteration # 11     ecut=    60.00 Ry     beta= 0.30
     Davidson diagonalization with overlap
     ethr =  1.00E-02,  avg # of iterations =  3.0

     negative rho (up, down):  2.859E+00 0.000E+00

     total cpu time spent up to now is     4875.2 secs

     total energy              =  -16791.29071644 Ry
     estimated scf accuracy    <    2746.21885557 Ry

     iteration # 12     ecut=    60.00 Ry     beta= 0.30
     Davidson diagonalization with overlap
     ethr =  1.00E-02,  avg # of iterations =  5.0

     negative rho (up, down):  2.850E+00 0.000E+00

     total cpu time spent up to now is     5166.6 secs

     total energy              =  -16839.14042583 Ry
     estimated scf accuracy    <     572.33741441 Ry

     iteration # 13     ecut=    60.00 Ry     beta= 0.30
     Davidson diagonalization with overlap
     ethr =  1.00E-02,  avg # of iterations =  2.0

     negative rho (up, down):  2.836E+00 0.000E+00

     total cpu time spent up to now is     5343.4 secs

     total energy              =  -16839.53446236 Ry
     estimated scf accuracy    <      64.72681860 Ry

     iteration # 14     ecut=    60.00 Ry     beta= 0.30
     Davidson diagonalization with overlap
     ethr =  6.27E-03,  avg # of iterations =  3.9

     negative rho (up, down):  2.836E+00 0.000E+00

     total cpu time spent up to now is     5543.9 secs

     total energy              =  -16845.36382892 Ry
     estimated scf accuracy    <      76.13643099 Ry

     iteration # 15     ecut=    60.00 Ry     beta= 0.30
     Davidson diagonalization with overlap
     ethr =  6.27E-03,  avg # of iterations =  1.1

     negative rho (up, down):  2.841E+00 0.000E+00

     total cpu time spent up to now is     5698.0 secs

     total energy              =  -16841.39871308 Ry
     estimated scf accuracy    <      25.21560186 Ry

     iteration # 16     ecut=    60.00 Ry     beta= 0.30
     Davidson diagonalization with overlap
     ethr =  2.44E-03,  avg # of iterations =  3.3

     negative rho (up, down):  2.843E+00 0.000E+00

     total cpu time spent up to now is     5899.0 secs

     total energy              =  -16843.48252818 Ry
     estimated scf accuracy    <      39.16385489 Ry

     iteration # 17     ecut=    60.00 Ry     beta= 0.30
     Davidson diagonalization with overlap
     ethr =  2.44E-03,  avg # of iterations =  3.0

     negative rho (up, down):  2.837E+00 0.000E+00

     total cpu time spent up to now is     6082.1 secs

     total energy              =  -16839.49138580 Ry
     estimated scf accuracy    <     108.66540149 Ry

     iteration # 18     ecut=    60.00 Ry     beta= 0.30
     Davidson diagonalization with overlap
     ethr =  2.44E-03,  avg # of iterations =  2.3

     negative rho (up, down):  2.836E+00 0.000E+00

     total cpu time spent up to now is     6262.2 secs

     total energy              =  -16842.22258444 Ry
     estimated scf accuracy    <      23.72935651 Ry

     iteration # 19     ecut=    60.00 Ry     beta= 0.30
     Davidson diagonalization with overlap
     ethr =  2.30E-03,  avg # of iterations =  2.1

     negative rho (up, down):  2.835E+00 0.000E+00

     total cpu time spent up to now is     6439.2 secs

     total energy              =  -16842.71512843 Ry
     estimated scf accuracy    <      11.41213846 Ry

     iteration # 20     ecut=    60.00 Ry     beta= 0.30
     Davidson diagonalization with overlap
     ethr =  1.11E-03,  avg # of iterations =  2.8

     negative rho (up, down):  2.870E+00 0.000E+00

     total cpu time spent up to now is     6615.5 secs

     total energy              =  -16841.97883967 Ry
     estimated scf accuracy    <       3.89238626 Ry

     iteration # 21     ecut=    60.00 Ry     beta= 0.30
     Davidson diagonalization with overlap
     ethr =  3.77E-04,  avg # of iterations = 12.7

     negative rho (up, down):  2.834E+00 0.000E+00

     total cpu time spent up to now is     6881.9 secs

     total energy              =  -16838.90651044 Ry
     estimated scf accuracy    <     139.64631966 Ry

     iteration # 22     ecut=    60.00 Ry     beta= 0.30
     Davidson diagonalization with overlap
     ethr =  3.77E-04,  avg # of iterations =  4.0

     negative rho (up, down):  2.835E+00 0.000E+00

     total cpu time spent up to now is     7077.1 secs

     total energy              =  -16841.02157495 Ry
     estimated scf accuracy    <      70.25644097 Ry

     iteration # 23     ecut=    60.00 Ry     beta= 0.30
     Davidson diagonalization with overlap
     c_bands:  3 eigenvalues not converged
     c_bands:  1 eigenvalues not converged
     ethr =  3.77E-04,  avg # of iterations = 15.1

     negative rho (up, down):  2.834E+00 0.000E+00

     total cpu time spent up to now is     7291.8 secs

     total energy              =  -16842.73060756 Ry
     estimated scf accuracy    <       3.72274702 Ry

     iteration # 24     ecut=    60.00 Ry     beta= 0.30
     Davidson diagonalization with overlap
     ethr =  3.61E-04,  avg # of iterations =  3.2

     negative rho (up, down):  2.834E+00 0.000E+00

     total cpu time spent up to now is     7469.7 secs

     total energy              =  -16842.76126272 Ry
     estimated scf accuracy    <       3.07046692 Ry

     iteration # 25     ecut=    60.00 Ry     beta= 0.30
     Davidson diagonalization with overlap
     ethr =  2.98E-04,  avg # of iterations =  2.8

     negative rho (up, down):  2.833E+00 0.000E+00

     total cpu time spent up to now is     7646.5 secs

     total energy              =  -16842.77043923 Ry
     estimated scf accuracy    <       3.73664734 Ry

     iteration # 26     ecut=    60.00 Ry     beta= 0.30
     Davidson diagonalization with overlap
     ethr =  2.98E-04,  avg # of iterations =  2.0

     negative rho (up, down):  2.832E+00 0.000E+00

     total cpu time spent up to now is     7821.3 secs

     total energy              =  -16842.69468968 Ry
     estimated scf accuracy    <       3.44972900 Ry

     iteration # 27     ecut=    60.00 Ry     beta= 0.30
     Davidson diagonalization with overlap
     ethr =  2.98E-04,  avg # of iterations =  9.2

     negative rho (up, down):  2.832E+00 0.000E+00

     total cpu time spent up to now is     8018.9 secs

     total energy              =  -16842.73859846 Ry
     estimated scf accuracy    <       1.51713557 Ry

     iteration # 28     ecut=    60.00 Ry     beta= 0.30
     Davidson diagonalization with overlap
     ethr =  1.47E-04,  avg # of iterations =  2.6

     negative rho (up, down):  2.832E+00 0.000E+00

     total cpu time spent up to now is     8195.6 secs

     total energy              =  -16842.77749574 Ry
     estimated scf accuracy    <       0.76814587 Ry

     iteration # 29     ecut=    60.00 Ry     beta= 0.30
     Davidson diagonalization with overlap
     ethr =  7.44E-05,  avg # of iterations =  5.1

     negative rho (up, down):  2.832E+00 0.000E+00

     total cpu time spent up to now is     8372.7 secs

     total energy              =  -16842.78224410 Ry
     estimated scf accuracy    <       0.45126000 Ry

     iteration # 30     ecut=    60.00 Ry     beta= 0.30
     Davidson diagonalization with overlap
     ethr =  4.37E-05,  avg # of iterations =  6.9

     negative rho (up, down):  2.961E+00 0.000E+00

     total cpu time spent up to now is     8557.9 secs

     total energy              =  -16842.72633253 Ry
     estimated scf accuracy    <       0.31040274 Ry

     iteration # 31     ecut=    60.00 Ry     beta= 0.30
     Davidson diagonalization with overlap
     c_bands:  1 eigenvalues not converged
     c_bands:  1 eigenvalues not converged
     ethr =  3.01E-05,  avg # of iterations = 17.7

     negative rho (up, down):  2.831E+00 0.000E+00

     total cpu time spent up to now is     8806.0 secs

     total energy              =  -16842.65554620 Ry
     estimated scf accuracy    <       1.65332659 Ry

     iteration # 32     ecut=    60.00 Ry     beta= 0.30
     Davidson diagonalization with overlap
     c_bands:  3 eigenvalues not converged
     c_bands:  2 eigenvalues not converged
     ethr =  3.01E-05,  avg # of iterations = 15.3

     negative rho (up, down):  2.831E+00 0.000E+00

     total cpu time spent up to now is     9029.8 secs

     total energy              =  -16842.76336988 Ry
     estimated scf accuracy    <       0.23450759 Ry

     iteration # 33     ecut=    60.00 Ry     beta= 0.30
     Davidson diagonalization with overlap
     ethr =  2.27E-05,  avg # of iterations =  3.3

     negative rho (up, down):  2.831E+00 0.000E+00

     total cpu time spent up to now is     9208.0 secs

     total energy              =  -16842.76907539 Ry
     estimated scf accuracy    <       0.04643237 Ry

     iteration # 34     ecut=    60.00 Ry     beta= 0.30
     Davidson diagonalization with overlap
     c_bands:  3 eigenvalues not converged
     c_bands:  2 eigenvalues not converged
     c_bands:  2 eigenvalues not converged
     ethr =  4.50E-06,  avg # of iterations = 14.2

     negative rho (up, down):  2.832E+00 0.000E+00

     total cpu time spent up to now is     9420.3 secs

     total energy              =  -16842.76926316 Ry
     estimated scf accuracy    <       0.02285774 Ry

     iteration # 35     ecut=    60.00 Ry     beta= 0.30
     Davidson diagonalization with overlap
     c_bands:  2 eigenvalues not converged
     c_bands:  2 eigenvalues not converged
     c_bands:  3 eigenvalues not converged
     ethr =  2.21E-06,  avg # of iterations = 11.3

     negative rho (up, down):  2.837E+00 0.000E+00

     total cpu time spent up to now is     9620.5 secs

     total energy              =  -16842.76870493 Ry
     estimated scf accuracy    <       0.01764355 Ry

     iteration # 36     ecut=    60.00 Ry     beta= 0.30
     Davidson diagonalization with overlap
     c_bands:  2 eigenvalues not converged
     ethr =  1.71E-06,  avg # of iterations = 12.1

     negative rho (up, down):  2.839E+00 0.000E+00

     total cpu time spent up to now is     9825.4 secs

     total energy              =  -16842.76889403 Ry
     estimated scf accuracy    <       0.00557453 Ry

     iteration # 37     ecut=    60.00 Ry     beta= 0.30
     Davidson diagonalization with overlap
     c_bands:  1 eigenvalues not converged
     ethr =  5.40E-07,  avg # of iterations =  4.7

     negative rho (up, down):  2.837E+00 0.000E+00

     total cpu time spent up to now is    10006.6 secs

     total energy              =  -16842.76901705 Ry
     estimated scf accuracy    <       0.00160452 Ry

     iteration # 38     ecut=    60.00 Ry     beta= 0.30
     Davidson diagonalization with overlap
     ethr =  1.55E-07,  avg # of iterations =  1.6

     negative rho (up, down):  2.837E+00 0.000E+00

     total cpu time spent up to now is    10170.9 secs

     total energy              =  -16842.76899730 Ry
     estimated scf accuracy    <       0.00209678 Ry

     iteration # 39     ecut=    60.00 Ry     beta= 0.30
     Davidson diagonalization with overlap
     ethr =  1.55E-07,  avg # of iterations =  1.0

     negative rho (up, down):  2.836E+00 0.000E+00

     total cpu time spent up to now is    10322.7 secs

     total energy              =  -16842.76901825 Ry
     estimated scf accuracy    <       0.00120450 Ry

     iteration # 40     ecut=    60.00 Ry     beta= 0.30
     Davidson diagonalization with overlap
     ethr =  1.17E-07,  avg # of iterations =  1.1

     negative rho (up, down):  2.835E+00 0.000E+00

     total cpu time spent up to now is    10476.6 secs

     total energy              =  -16842.76901983 Ry
     estimated scf accuracy    <       0.00120860 Ry

     iteration # 41     ecut=    60.00 Ry     beta= 0.30
     Davidson diagonalization with overlap
     ethr =  1.17E-07,  avg # of iterations =  1.9

     negative rho (up, down):  2.833E+00 0.000E+00

     total cpu time spent up to now is    10646.0 secs

     total energy              =  -16842.76904430 Ry
     estimated scf accuracy    <       0.00010438 Ry

     iteration # 42     ecut=    60.00 Ry     beta= 0.30
     Davidson diagonalization with overlap
     c_bands:  1 eigenvalues not converged
     ethr =  1.01E-08,  avg # of iterations =  7.0

     negative rho (up, down):  2.833E+00 0.000E+00

     total cpu time spent up to now is    10833.7 secs

     total energy              =  -16842.76902703 Ry
     estimated scf accuracy    <       0.00047746 Ry

     iteration # 43     ecut=    60.00 Ry     beta= 0.30
     Davidson diagonalization with overlap
     c_bands:  1 eigenvalues not converged
     ethr =  1.01E-08,  avg # of iterations =  4.6

     negative rho (up, down):  2.833E+00 0.000E+00

     total cpu time spent up to now is    11012.7 secs

     total energy              =  -16842.76903296 Ry
     estimated scf accuracy    <       0.00027140 Ry

     iteration # 44     ecut=    60.00 Ry     beta= 0.30
     Davidson diagonalization with overlap
     ethr =  1.01E-08,  avg # of iterations =  2.4

     negative rho (up, down):  2.832E+00 0.000E+00

     total cpu time spent up to now is    11185.7 secs

     total energy              =  -16842.76903180 Ry
     estimated scf accuracy    <       0.00037922 Ry

     iteration # 45     ecut=    60.00 Ry     beta= 0.30
     Davidson diagonalization with overlap
     ethr =  1.01E-08,  avg # of iterations =  2.1

     negative rho (up, down):  2.832E+00 0.000E+00

     total cpu time spent up to now is    11357.7 secs

     total energy              =  -16842.76903937 Ry
     estimated scf accuracy    <       0.00006147 Ry

     iteration # 46     ecut=    60.00 Ry     beta= 0.30
     Davidson diagonalization with overlap
     ethr =  5.96E-09,  avg # of iterations =  1.8

     negative rho (up, down):  2.832E+00 0.000E+00

     total cpu time spent up to now is    11524.8 secs

     total energy              =  -16842.76903702 Ry
     estimated scf accuracy    <       0.00009567 Ry

     iteration # 47     ecut=    60.00 Ry     beta= 0.30
     Davidson diagonalization with overlap
     ethr =  5.96E-09,  avg # of iterations =  1.7

     negative rho (up, down):  2.832E+00 0.000E+00

     total cpu time spent up to now is    11688.4 secs

     total energy              =  -16842.76903815 Ry
     estimated scf accuracy    <       0.00008631 Ry

     iteration # 48     ecut=    60.00 Ry     beta= 0.30
     Davidson diagonalization with overlap
     ethr =  5.96E-09,  avg # of iterations =  1.7

     negative rho (up, down):  2.831E+00 0.000E+00

     total cpu time spent up to now is    11853.3 secs

     total energy              =  -16842.76904126 Ry
     estimated scf accuracy    <       0.00002234 Ry

     iteration # 49     ecut=    60.00 Ry     beta= 0.30
     Davidson diagonalization with overlap
     c_bands:  1 eigenvalues not converged
     ethr =  2.16E-09,  avg # of iterations =  3.3

     negative rho (up, down):  2.831E+00 0.000E+00

     total cpu time spent up to now is    12015.8 secs

     total energy              =  -16842.76904197 Ry
     estimated scf accuracy    <       0.00001086 Ry

     iteration # 50     ecut=    60.00 Ry     beta= 0.30
     Davidson diagonalization with overlap
     ethr =  1.05E-09,  avg # of iterations =  1.1

     negative rho (up, down):  2.831E+00 0.000E+00

     total cpu time spent up to now is    12170.2 secs

     total energy              =  -16842.76904202 Ry
     estimated scf accuracy    <       0.00001237 Ry

     iteration # 51     ecut=    60.00 Ry     beta= 0.30
     Davidson diagonalization with overlap
     ethr =  1.05E-09,  avg # of iterations =  1.2

     negative rho (up, down):  2.831E+00 0.000E+00

     total cpu time spent up to now is    12326.7 secs

     total energy              =  -16842.76904250 Ry
     estimated scf accuracy    <       0.00000431 Ry

     iteration # 52     ecut=    60.00 Ry     beta= 0.30
     Davidson diagonalization with overlap
     ethr =  4.18E-10,  avg # of iterations =  1.0

     negative rho (up, down):  2.831E+00 0.000E+00

     total cpu time spent up to now is    12478.6 secs

     total energy              =  -16842.76904263 Ry
     estimated scf accuracy    <       0.00000271 Ry

     iteration # 53     ecut=    60.00 Ry     beta= 0.30
     Davidson diagonalization with overlap
     ethr =  2.63E-10,  avg # of iterations =  1.0

     negative rho (up, down):  2.831E+00 0.000E+00

     total cpu time spent up to now is    12630.1 secs

     total energy              =  -16842.76904263 Ry
     estimated scf accuracy    <       0.00000522 Ry

     iteration # 54     ecut=    60.00 Ry     beta= 0.30
     Davidson diagonalization with overlap
     ethr =  2.63E-10,  avg # of iterations =  1.0

     negative rho (up, down):  2.831E+00 0.000E+00

     total cpu time spent up to now is    12781.6 secs

     total energy              =  -16842.76904270 Ry
     estimated scf accuracy    <       0.00000326 Ry

     iteration # 55     ecut=    60.00 Ry     beta= 0.30
     Davidson diagonalization with overlap
     ethr =  2.63E-10,  avg # of iterations =  1.0

     negative rho (up, down):  2.831E+00 0.000E+00

     total cpu time spent up to now is    12933.3 secs

     total energy              =  -16842.76904286 Ry
     estimated scf accuracy    <       0.00000144 Ry

     iteration # 56     ecut=    60.00 Ry     beta= 0.30
     Davidson diagonalization with overlap
     ethr =  1.40E-10,  avg # of iterations =  1.0

     negative rho (up, down):  2.831E+00 0.000E+00

     total cpu time spent up to now is    13084.5 secs

     total energy              =  -16842.76904294 Ry
     estimated scf accuracy    <       0.00000085 Ry

     iteration # 57     ecut=    60.00 Ry     beta= 0.30
     Davidson diagonalization with overlap
     ethr =  8.23E-11,  avg # of iterations =  1.0

     negative rho (up, down):  2.831E+00 0.000E+00

     total cpu time spent up to now is    13236.3 secs

     total energy              =  -16842.76904293 Ry
     estimated scf accuracy    <       0.00000094 Ry

     iteration # 58     ecut=    60.00 Ry     beta= 0.30
     Davidson diagonalization with overlap
     ethr =  8.23E-11,  avg # of iterations =  1.0

     negative rho (up, down):  2.831E+00 0.000E+00

     total cpu time spent up to now is    13388.3 secs

     total energy              =  -16842.76904296 Ry
     estimated scf accuracy    <       0.00000037 Ry

     iteration # 59     ecut=    60.00 Ry     beta= 0.30
     Davidson diagonalization with overlap
     ethr =  3.58E-11,  avg # of iterations =  1.0

     negative rho (up, down):  2.831E+00 0.000E+00

     total cpu time spent up to now is    13539.9 secs

     total energy              =  -16842.76904299 Ry
     estimated scf accuracy    <       0.00000038 Ry

     iteration # 60     ecut=    60.00 Ry     beta= 0.30
     Davidson diagonalization with overlap
     ethr =  3.58E-11,  avg # of iterations =  1.0

     negative rho (up, down):  2.831E+00 0.000E+00

     total cpu time spent up to now is    13691.4 secs

     total energy              =  -16842.76904303 Ry
     estimated scf accuracy    <       0.00000061 Ry

     iteration # 61     ecut=    60.00 Ry     beta= 0.30
     Davidson diagonalization with overlap
     ethr =  3.58E-11,  avg # of iterations =  1.0

     negative rho (up, down):  2.831E+00 0.000E+00

     total cpu time spent up to now is    13842.7 secs

     total energy              =  -16842.76904304 Ry
     estimated scf accuracy    <       0.00000021 Ry

     iteration # 62     ecut=    60.00 Ry     beta= 0.30
     Davidson diagonalization with overlap
     ethr =  2.04E-11,  avg # of iterations =  1.0

     negative rho (up, down):  2.831E+00 0.000E+00

     total cpu time spent up to now is    13994.5 secs

     total energy              =  -16842.76904305 Ry
     estimated scf accuracy    <       0.00000010 Ry

     iteration # 63     ecut=    60.00 Ry     beta= 0.30
     Davidson diagonalization with overlap
     ethr =  9.71E-12,  avg # of iterations =  1.0

     negative rho (up, down):  2.831E+00 0.000E+00

     total cpu time spent up to now is    14146.3 secs

     total energy              =  -16842.76904305 Ry
     estimated scf accuracy    <       0.00000019 Ry

     iteration # 64     ecut=    60.00 Ry     beta= 0.30
     Davidson diagonalization with overlap
     ethr =  9.71E-12,  avg # of iterations =  1.0

     negative rho (up, down):  2.831E+00 0.000E+00

     total cpu time spent up to now is    14298.2 secs

     total energy              =  -16842.76904305 Ry
     estimated scf accuracy    <       0.00000012 Ry

     iteration # 65     ecut=    60.00 Ry     beta= 0.30
     Davidson diagonalization with overlap
     ethr =  9.71E-12,  avg # of iterations =  1.0

     negative rho (up, down):  2.831E+00 0.000E+00

     total cpu time spent up to now is    14450.3 secs

     total energy              =  -16842.76904307 Ry
     estimated scf accuracy    <       0.00000015 Ry

     iteration # 66     ecut=    60.00 Ry     beta= 0.30
     Davidson diagonalization with overlap
     ethr =  9.71E-12,  avg # of iterations =  1.0

     negative rho (up, down):  2.831E+00 0.000E+00

     total cpu time spent up to now is    14602.1 secs

     total energy              =  -16842.76904308 Ry
     estimated scf accuracy    <       0.00000001 Ry

     iteration # 67     ecut=    60.00 Ry     beta= 0.30
     Davidson diagonalization with overlap
     ethr =  1.30E-12,  avg # of iterations =  1.0

     negative rho (up, down):  2.831E+00 0.000E+00

     total cpu time spent up to now is    14753.2 secs

     total energy              =  -16842.76904308 Ry
     estimated scf accuracy    <       0.00000002 Ry

     iteration # 68     ecut=    60.00 Ry     beta= 0.30
     Davidson diagonalization with overlap
     ethr =  1.30E-12,  avg # of iterations =  1.0

     negative rho (up, down):  2.831E+00 0.000E+00

     total cpu time spent up to now is    14905.0 secs

     total energy              =  -16842.76904308 Ry
     estimated scf accuracy    <       0.00000001 Ry

     iteration # 69     ecut=    60.00 Ry     beta= 0.30
     Davidson diagonalization with overlap
     ethr =  1.18E-12,  avg # of iterations =  1.0

     negative rho (up, down):  2.831E+00 0.000E+00

     total cpu time spent up to now is    15056.4 secs

     total energy              =  -16842.76904309 Ry
     estimated scf accuracy    <       0.00000002 Ry

     iteration # 70     ecut=    60.00 Ry     beta= 0.30
     Davidson diagonalization with overlap
     ethr =  1.18E-12,  avg # of iterations =  1.0

     negative rho (up, down):  2.831E+00 0.000E+00

     total cpu time spent up to now is    15207.4 secs

     total energy              =  -16842.76904310 Ry
     estimated scf accuracy    <       0.00000001 Ry

     iteration # 71     ecut=    60.00 Ry     beta= 0.30
     Davidson diagonalization with overlap
     ethr =  1.18E-12,  avg # of iterations =  1.0

     negative rho (up, down):  2.831E+00 0.000E+00

     total cpu time spent up to now is    15359.0 secs

     total energy              =  -16842.76904310 Ry
     estimated scf accuracy    <          3.9E-09 Ry

     iteration # 72     ecut=    60.00 Ry     beta= 0.30
     Davidson diagonalization with overlap
     ethr =  3.74E-13,  avg # of iterations =  1.3

     negative rho (up, down):  2.831E+00 0.000E+00

     total cpu time spent up to now is    15518.4 secs

     total energy              =  -16842.76904310 Ry
     estimated scf accuracy    <          5.1E-09 Ry

     iteration # 73     ecut=    60.00 Ry     beta= 0.30
     Davidson diagonalization with overlap
     ethr =  3.74E-13,  avg # of iterations =  1.0

     negative rho (up, down):  2.831E+00 0.000E+00

     total cpu time spent up to now is    15670.1 secs

     total energy              =  -16842.76904310 Ry
     estimated scf accuracy    <       0.00000001 Ry

     iteration # 74     ecut=    60.00 Ry     beta= 0.30
     Davidson diagonalization with overlap
     ethr =  3.74E-13,  avg # of iterations =  1.0

     negative rho (up, down):  2.831E+00 0.000E+00

     total cpu time spent up to now is    15821.5 secs

     total energy              =  -16842.76904310 Ry
     estimated scf accuracy    <          5.7E-09 Ry

     iteration # 75     ecut=    60.00 Ry     beta= 0.30
     Davidson diagonalization with overlap
     ethr =  3.74E-13,  avg # of iterations =  1.0

     negative rho (up, down):  2.831E+00 0.000E+00

     total cpu time spent up to now is    15972.9 secs

     total energy              =  -16842.76904310 Ry
     estimated scf accuracy    <       0.00000002 Ry

     iteration # 76     ecut=    60.00 Ry     beta= 0.30
     Davidson diagonalization with overlap
     ethr =  3.74E-13,  avg # of iterations =  1.0

     negative rho (up, down):  2.831E+00 0.000E+00

     total cpu time spent up to now is    16124.3 secs

     total energy              =  -16842.76904310 Ry
     estimated scf accuracy    <          8.3E-10 Ry

     iteration # 77     ecut=    60.00 Ry     beta= 0.30
     Davidson diagonalization with overlap
     ethr =  1.00E-13,  avg # of iterations =  1.0

     negative rho (up, down):  2.831E+00 0.000E+00

     total cpu time spent up to now is    16275.7 secs

     total energy              =  -16842.76904310 Ry
     estimated scf accuracy    <          6.3E-10 Ry

     iteration # 78     ecut=    60.00 Ry     beta= 0.30
     Davidson diagonalization with overlap
     ethr =  1.00E-13,  avg # of iterations =  1.0

     negative rho (up, down):  2.831E+00 0.000E+00

     total cpu time spent up to now is    16427.2 secs

     total energy              =  -16842.76904310 Ry
     estimated scf accuracy    <          5.1E-10 Ry

     iteration # 79     ecut=    60.00 Ry     beta= 0.30
     Davidson diagonalization with overlap
     ethr =  1.00E-13,  avg # of iterations =  1.0

     negative rho (up, down):  2.831E+00 0.000E+00

     total cpu time spent up to now is    16578.3 secs

     total energy              =  -16842.76904310 Ry
     estimated scf accuracy    <          7.2E-10 Ry

     iteration # 80     ecut=    60.00 Ry     beta= 0.30
     Davidson diagonalization with overlap
     ethr =  1.00E-13,  avg # of iterations =  1.0

     negative rho (up, down):  2.831E+00 0.000E+00

     total cpu time spent up to now is    16729.9 secs

     total energy              =  -16842.76904310 Ry
     estimated scf accuracy    <          2.9E-10 Ry

     iteration # 81     ecut=    60.00 Ry     beta= 0.30
     Davidson diagonalization with overlap
     ethr =  1.00E-13,  avg # of iterations =  1.0

     negative rho (up, down):  2.831E+00 0.000E+00

     total cpu time spent up to now is    16880.4 secs

     total energy              =  -16842.76904310 Ry
     estimated scf accuracy    <          1.4E-10 Ry

     iteration # 82     ecut=    60.00 Ry     beta= 0.30
     Davidson diagonalization with overlap
     ethr =  1.00E-13,  avg # of iterations =  1.0

     negative rho (up, down):  2.831E+00 0.000E+00

     total cpu time spent up to now is    17032.2 secs

     total energy              =  -16842.76904311 Ry
     estimated scf accuracy    <          1.7E-10 Ry

     iteration # 83     ecut=    60.00 Ry     beta= 0.30
     Davidson diagonalization with overlap
     ethr =  1.00E-13,  avg # of iterations =  1.0

     negative rho (up, down):  2.831E+00 0.000E+00

     total cpu time spent up to now is    17183.8 secs

     total energy              =  -16842.76904311 Ry
     estimated scf accuracy    <          4.4E-10 Ry

     iteration # 84     ecut=    60.00 Ry     beta= 0.30
     Davidson diagonalization with overlap
     ethr =  1.00E-13,  avg # of iterations =  1.0

     negative rho (up, down):  2.831E+00 0.000E+00

     total cpu time spent up to now is    17335.2 secs

     total energy              =  -16842.76904311 Ry
     estimated scf accuracy    <          1.5E-10 Ry

     iteration # 85     ecut=    60.00 Ry     beta= 0.30
     Davidson diagonalization with overlap
     ethr =  1.00E-13,  avg # of iterations =  1.0

     negative rho (up, down):  2.831E+00 0.000E+00

     total cpu time spent up to now is    17486.9 secs

     total energy              =  -16842.76904311 Ry
     estimated scf accuracy    <          3.0E-10 Ry

     iteration # 86     ecut=    60.00 Ry     beta= 0.30
     Davidson diagonalization with overlap
     ethr =  1.00E-13,  avg # of iterations =  1.0

     negative rho (up, down):  2.831E+00 0.000E+00

     total cpu time spent up to now is    17637.8 secs

     End of self-consistent calculation

          k = 0.0000 0.0000 0.0000 (158771 PWs)   bands (ev):

  -110.5268-110.5265-110.5263-110.5259-110.5258-110.5258-110.5258-110.5257
  -110.5257-110.5253-110.5250-110.5248-109.9543-109.9541-109.9539-109.9536
  -109.9536-109.9535-109.9535-109.9535-109.9534-109.9531-109.9530-109.9527
   -67.9366 -67.9358 -67.9356 -67.9355 -67.9354 -67.9345 -67.9344 -67.9340
   -67.9327 -67.9327 -67.9321 -67.9320 -67.9308 -67.9307 -67.9301 -67.9301
   -67.9288 -67.9284 -67.9283 -67.9274 -67.9273 -67.9272 -67.9270 -67.9263
   -67.9077 -67.9074 -67.9072 -67.9067 -67.9066 -67.9066 -67.9066 -67.9066
   -67.9065 -67.9060 -67.9058 -67.9055 -67.3921 -67.3920 -67.3920 -67.3919
   -67.3919 -67.3917 -67.3902 -67.3901 -67.3898 -67.3897 -67.3883 -67.3883
   -67.3879 -67.3879 -67.3865 -67.3864 -67.3861 -67.3860 -67.3845 -67.3843
   -67.3843 -67.3842 -67.3841 -67.3841 -67.3255 -67.3253 -67.3251 -67.3248
   -67.3247 -67.3247 -67.3246 -67.3246 -67.3245 -67.3242 -67.3240 -67.3238
   -48.6420 -48.6399 -48.6355 -48.6355 -48.6353 -48.6353 -48.6156 -48.6155
   -48.6134 -48.6133 -48.5935 -48.5935 -48.5848 -48.5848 -48.5674 -48.5673
   -48.5639 -48.5638 -48.5627 -48.5626 -48.5625 -48.5624 -48.5502 -48.5501
   -48.5491 -48.5458 -48.5442 -48.5441 -48.5435 -48.5329 -48.5328 -48.5275
   -48.5275 -48.5273 -48.5273 -48.5166 -48.3818 -48.3818 -48.3816 -48.3816
   -48.3797 -48.3788 -48.3604 -48.3603 -48.3587 -48.3586 -48.3395 -48.3395
   -48.3394 -48.3394 -48.3306 -48.3267 -48.3265 -48.3228 -48.3226 -48.3225
   -48.3225 -48.3224 -48.3222 -48.3200 -48.3198 -48.3185 -48.3184 -48.3183
   -48.3182 -48.3144 -48.2988 -48.2979 -48.2978 -48.2978 -48.2976 -48.2976
   -48.0558 -48.0525 -48.0503 -48.0503 -48.0502 -48.0502 -48.0415 -48.0415
   -48.0401 -48.0400 -48.0307 -48.0307 -48.0206 -48.0206 -48.0094 -48.0094
   -48.0077 -48.0076 -48.0038 -48.0038 -48.0037 -48.0037 -47.9910 -47.9875
   -47.8740 -47.8720 -47.8655 -47.8654 -47.8646 -47.8645 -47.8623 -47.8623
   -47.8569 -47.8568 -47.8568 -47.8567  -5.9145  -4.9505  -4.9504  -4.3070
    -4.0204  -4.0202  -3.7560  -3.7559  -3.7558  -3.7558  -3.7390  -3.5203
    -3.5203  -3.4531  -3.4529  -3.3989  -3.2341  -3.2341  -3.2340  -3.2340
    -3.1953  -3.0817  -2.9829  -2.9829  -2.9828  -2.9827  -2.9002  -2.8954
    -2.8953  -2.7498  -2.7497  -2.7348  -2.7342  -2.7029  -2.7028  -2.7013
    -2.7011  -2.6873  -2.6873  -2.6798  -2.5940  -2.5828  -2.5828  -2.5826
    -2.5826  -2.5505  -2.5504  -2.5304  -2.5303  -2.5215  -2.5215  -2.4951
    -2.4950  -2.4356  -2.4355  -2.4274  -2.4274  -2.3590  -2.3589  -2.3007
    -2.2782  -2.2782  -2.2547  -2.2546  -2.2546  -2.2545  -2.2185  -2.2184
    -2.1908  -2.1907  -2.1414  -2.1414  -2.1413  -2.1412  -2.0780  -2.0779
    -2.0566  -2.0565  -2.0564  -2.0564  -2.0385  -2.0384  -1.9997  -1.9947
    -1.9946  -1.9679  -1.9679  -1.9678  -1.9677  -1.9035  -1.9035  -1.8290
    -1.8290  -1.8169  -1.8168  -1.7955  -1.7954  -1.7349  -1.7348  -1.6952
    -1.6951  -1.6925  -1.6924  -1.6144  -1.6144  -1.5450  -1.5449  -1.5407
    -1.5407  -1.4798  -1.4797  -1.4797  -1.4797  -1.3926  -1.3926  -1.3340
    -1.3337  -1.3303  -1.3302  -1.3034  -1.3003  -1.3002  -1.3002  -1.3001
    -1.3001  -1.3001  -1.2924  -1.2915  -1.2471  -1.2471  -1.1158  -1.1116
    -1.1116  -1.1088  -1.0441  -1.0441  -0.9343  -0.9342  -0.9342  -0.9342
    -0.8697  -0.8696  -0.8680  -0.8679  -0.8495  -0.8495  -0.7831  -0.7831
    -0.7831  -0.7830  -0.7459  -0.7459  -0.6941  -0.6941  -0.6940  -0.6940
    -0.5220  -0.4973  -0.4973  -0.4777  -0.4534  -0.4531  -0.4003  -0.4002
    -0.4002  -0.4001  -0.3904  -0.3897  -0.3677  -0.3677  -0.3673  -0.3672
    -0.3672  -0.3671  -0.3585  -0.3585  -0.3256  -0.3256  -0.3042  -0.3042
    -0.2732  -0.2731  -0.2440  -0.2440  -0.2059  -0.2058  -0.1941  -0.1941
    -0.1940  -0.1940  -0.1600  -0.1600  -0.1600  -0.1600  -0.0945  -0.0945
    -0.0877  -0.0778  -0.0778  -0.0717  -0.0661  -0.0660  -0.0642  -0.0642
    -0.0500  -0.0500  -0.0499  -0.0498  -0.0486  -0.0244   0.0113   0.0113
     0.0124   0.0124   0.0446   0.0447   0.0476   0.0476   0.0572   0.0572
     0.0573   0.0573   0.0773   0.0774   0.0812   0.0812   0.0813   0.0813
     0.1225   0.1226   0.2221   0.2478   0.2478   0.2482   0.2482   0.2589
     0.2634   0.2635   0.2654   0.2866   0.2867   0.3054   0.3055   0.3055
     0.3055   0.3988   0.3991   0.4058   0.4075   0.4606   0.4606   0.5234
     0.5235   0.5356   0.5356   0.5356   0.5356   0.5430   0.5431   0.5460
     0.5460   0.5535   0.5535   0.5795   0.5795   0.6011   0.6011   0.6452
     0.6452   0.6877   0.6877   0.6937   0.7149   0.7150   0.7410   0.7414
     0.7439   0.7613   0.7614   0.7621   0.7621   0.7621   0.7622   0.7721
     0.7881   0.7967   0.7967   0.8781   0.9720   0.9720   0.9900   0.9907
     0.9907   0.9907   0.9908   1.0273   1.0276   1.0614   1.0615   1.0734
     1.0735   1.0735   1.0735   1.1232   1.1233   1.1359   1.1360   1.1360
     1.1360   1.1933   1.1933   1.2140   1.2140   1.2315   1.2439   1.2844
     1.2845   1.5260   1.5260   1.7242   1.7243   1.7243   1.7243   2.6014
     2.6015   2.6377   2.7143   2.7144   2.7144   2.7144   2.8125   2.8125
     3.3182   3.3183   3.3183   3.3184   3.4627   3.4628   3.5822   3.5823
     4.2332   4.2332   4.2333   4.2333   4.2696   4.5230   4.5231   4.8210
     4.8211   5.0590   5.0590   5.0590   5.0591   5.4915   5.4916   5.5784
     5.5785   5.7798   5.9408   5.9410   5.9718   6.3650   6.3650   6.3651
     6.3651   6.4676   6.4677   6.6561   6.7228   6.7422   6.7423   6.8027
     6.8028   6.9249   6.9251   7.0477   7.2288   7.2289   7.6334   7.6336
     7.7129   7.7200   7.7201   7.7291   7.7291   7.9099   7.9099   7.9494
     8.0974   8.0974   8.1461   8.2676   8.2916   8.2918   8.3203   8.3203
     8.3203   8.3203   8.3364   8.3365   8.7382   8.7385   8.8023   8.8024
     8.9316   8.9316   8.9858   8.9858   8.9860   9.0128   9.0129   9.0214
     9.0218   9.0220   9.0220

          k = 0.0000 0.3750 0.0000 (158773 PWs)   bands (ev):

  -110.5268-110.5265-110.5263-110.5259-110.5258-110.5258-110.5258-110.5257
  -110.5256-110.5253-110.5250-110.5248-109.9543-109.9541-109.9539-109.9537
  -109.9536-109.9535-109.9535-109.9535-109.9534-109.9531-109.9530-109.9528
   -67.9363 -67.9360 -67.9360 -67.9353 -67.9352 -67.9344 -67.9343 -67.9341
   -67.9337 -67.9316 -67.9316 -67.9315 -67.9313 -67.9313 -67.9312 -67.9291
   -67.9287 -67.9285 -67.9284 -67.9276 -67.9276 -67.9268 -67.9268 -67.9265
   -67.9077 -67.9074 -67.9072 -67.9068 -67.9067 -67.9066 -67.9066 -67.9065
   -67.9064 -67.9060 -67.9058 -67.9055 -67.3924 -67.3924 -67.3918 -67.3915
   -67.3914 -67.3914 -67.3908 -67.3908 -67.3897 -67.3893 -67.3884 -67.3884
   -67.3878 -67.3878 -67.3869 -67.3865 -67.3854 -67.3854 -67.3848 -67.3848
   -67.3847 -67.3843 -67.3838 -67.3838 -67.3255 -67.3253 -67.3251 -67.3249
   -67.3247 -67.3247 -67.3246 -67.3246 -67.3244 -67.3242 -67.3240 -67.3238
   -48.6408 -48.6407 -48.6383 -48.6354 -48.6298 -48.6298 -48.6236 -48.6236
   -48.6120 -48.6047 -48.5955 -48.5955 -48.5865 -48.5864 -48.5752 -48.5667
   -48.5662 -48.5661 -48.5603 -48.5602 -48.5548 -48.5547 -48.5499 -48.5494
   -48.5491 -48.5458 -48.5436 -48.5436 -48.5360 -48.5342 -48.5341 -48.5335
   -48.5334 -48.5252 -48.5252 -48.5194 -48.3861 -48.3861 -48.3767 -48.3759
   -48.3741 -48.3741 -48.3707 -48.3707 -48.3548 -48.3548 -48.3420 -48.3420
   -48.3368 -48.3368 -48.3300 -48.3264 -48.3262 -48.3256 -48.3241 -48.3239
   -48.3239 -48.3239 -48.3211 -48.3209 -48.3194 -48.3188 -48.3187 -48.3150
   -48.3086 -48.3086 -48.3045 -48.3045 -48.3019 -48.3012 -48.2930 -48.2930
   -48.0544 -48.0532 -48.0532 -48.0501 -48.0475 -48.0475 -48.0428 -48.0428
   -48.0419 -48.0329 -48.0322 -48.0322 -48.0196 -48.0196 -48.0174 -48.0123
   -48.0123 -48.0081 -48.0007 -48.0007 -47.9983 -47.9983 -47.9947 -47.9901
   -47.8723 -47.8705 -47.8642 -47.8642 -47.8641 -47.8635 -47.8634 -47.8633
   -47.8581 -47.8580 -47.8578 -47.8577  -5.7706  -4.8379  -4.8377  -4.7220
    -4.1778  -4.1138  -4.1137  -3.6775  -3.5659  -3.5532  -3.5532  -3.4799
    -3.4798  -3.4408  -3.4407  -3.3255  -3.2909  -3.2909  -3.2548  -3.1744
    -3.1744  -3.1203  -3.0413  -3.0413  -3.0164  -2.9172  -2.9172  -2.8663
    -2.7710  -2.7561  -2.7561  -2.7528  -2.7527  -2.7218  -2.7218  -2.7072
    -2.7050  -2.6756  -2.6653  -2.6551  -2.6550  -2.6526  -2.6526  -2.6299
    -2.6258  -2.6127  -2.6126  -2.5739  -2.5738  -2.5636  -2.5226  -2.5226
    -2.5086  -2.4772  -2.4744  -2.4743  -2.4693  -2.4693  -2.4539  -2.3451
    -2.3450  -2.3165  -2.3164  -2.3007  -2.2797  -2.2481  -2.2437  -2.2246
    -2.2246  -2.2064  -2.2063  -2.1943  -2.1943  -2.1363  -2.1362  -2.1222
    -2.1222  -2.0503  -2.0379  -1.9847  -1.9847  -1.9600  -1.9599  -1.9433
    -1.9242  -1.9242  -1.9165  -1.9151  -1.9010  -1.9010  -1.8739  -1.8739
    -1.8651  -1.8482  -1.8037  -1.8037  -1.7994  -1.7633  -1.7633  -1.6138
    -1.5699  -1.5699  -1.5408  -1.5067  -1.4910  -1.4910  -1.4477  -1.4204
    -1.4204  -1.3970  -1.3969  -1.3944  -1.3721  -1.3690  -1.3690  -1.3642
    -1.3465  -1.3465  -1.3448  -1.3434  -1.3434  -1.3122  -1.2881  -1.2881
    -1.2569  -1.2495  -1.1857  -1.1472  -1.1472  -1.1186  -1.1185  -1.0943
    -1.0942  -1.0621  -1.0521  -1.0521  -0.9885  -0.9171  -0.9171  -0.8882
    -0.8849  -0.8487  -0.8431  -0.8430  -0.8337  -0.8336  -0.8226  -0.8226
    -0.7811  -0.7811  -0.7441  -0.7440  -0.7231  -0.7037  -0.7037  -0.6939
    -0.6560  -0.6560  -0.6109  -0.5797  -0.4560  -0.3824  -0.3824  -0.3814
    -0.3813  -0.3532  -0.3532  -0.3491  -0.3325  -0.3232  -0.3195  -0.3195
    -0.3125  -0.3125  -0.3020  -0.3020  -0.2870  -0.2869  -0.2783  -0.2771
    -0.2733  -0.2733  -0.2516  -0.2426  -0.2426  -0.2217  -0.2217  -0.2209
    -0.2209  -0.2060  -0.2060  -0.1935  -0.1811  -0.1811  -0.1779  -0.1769
    -0.1769  -0.1697  -0.1255  -0.1136  -0.1136  -0.0884  -0.0738  -0.0738
    -0.0409  -0.0357  -0.0284  -0.0234  -0.0234  -0.0052  -0.0052   0.0142
     0.0142   0.0240   0.0240   0.0383   0.0578   0.0615   0.0615   0.0617
     0.0617   0.0627   0.0852   0.1091   0.1091   0.1145   0.1145   0.1661
     0.1661   0.1780   0.2149   0.2149   0.2228   0.2228   0.2362   0.2513
     0.2671   0.2672   0.2711   0.2894   0.2895   0.2929   0.2941   0.3569
     0.3823   0.3823   0.4165   0.4165   0.4242   0.4243   0.4244   0.4245
     0.4284   0.4539   0.4695   0.4695   0.4746   0.4746   0.4783   0.4987
     0.5176   0.5176   0.5237   0.5237   0.5333   0.5458   0.5799   0.5837
     0.5838   0.6557   0.6580   0.6818   0.6826   0.6826   0.6998   0.7093
     0.7097   0.7194   0.7232   0.7392   0.7392   0.7814   0.7815   0.7924
     0.8061   0.8061   0.8092   0.8165   0.8165   0.8753   0.8799   0.9159
     0.9160   0.9281   0.9342   0.9342   0.9853   0.9854   1.0038   1.0038
     1.0188   1.0434   1.0787   1.0787   1.1428   1.1540   1.1540   1.1714
     1.2082   1.2157   1.2620   1.2621   1.3628   1.3629   1.4113   1.4114
     1.5227   1.5227   1.7131   1.7132   1.7216   1.7216   1.7990   2.2151
     2.6428   2.6428   2.7283   2.7284   2.7537   2.7761   2.9468   2.9468
     3.5293   3.5294   3.6268   3.6269   3.8482   3.8871   4.0623   4.0623
     4.0627   4.1284   4.1285   4.3099   4.3099   4.4562   4.4802   4.4802
     4.6590   4.6591   4.9427   5.2315   5.2315   5.4761   5.4761   5.5528
     5.5529   5.7848   5.9185   5.9764   6.0251   6.1078   6.2452   6.2626
     6.2628   6.4070   6.4070   6.4140   6.4140   6.6491   6.6491   6.7951
     6.8533   6.8534   6.8602   6.8730   6.9926   7.0473   7.0474   7.1751
     7.3134   7.3134   7.7417   7.7418   7.7567   7.7568   7.8599   7.8599
     7.8881   7.8916   7.8952   7.8953   7.9753   7.9826   8.0380   8.0925
     8.1258   8.1259   8.1275   8.2828   8.3905   8.4227   8.4228   8.5254
     8.8876   8.8877   8.9428   8.9428   8.9592   8.9592   8.9758   8.9759
     8.9773   9.2142   9.2388

          k = 0.0000-0.7500 0.0000 (158816 PWs)   bands (ev):

  -110.5268-110.5265-110.5263-110.5259-110.5258-110.5258-110.5258-110.5257
  -110.5256-110.5253-110.5250-110.5248-109.9543-109.9541-109.9539-109.9537
  -109.9536-109.9535-109.9535-109.9535-109.9533-109.9531-109.9530-109.9528
   -67.9361 -67.9359 -67.9357 -67.9357 -67.9357 -67.9350 -67.9332 -67.9332
   -67.9332 -67.9329 -67.9329 -67.9325 -67.9303 -67.9300 -67.9299 -67.9296
   -67.9296 -67.9296 -67.9278 -67.9271 -67.9271 -67.9271 -67.9269 -67.9267
   -67.9077 -67.9074 -67.9072 -67.9068 -67.9067 -67.9066 -67.9065 -67.9065
   -67.9063 -67.9060 -67.9058 -67.9055 -67.3922 -67.3922 -67.3922 -67.3922
   -67.3912 -67.3908 -67.3907 -67.3903 -67.3895 -67.3895 -67.3894 -67.3894
   -67.3868 -67.3868 -67.3867 -67.3867 -67.3858 -67.3855 -67.3854 -67.3850
   -67.3840 -67.3840 -67.3840 -67.3840 -67.3255 -67.3253 -67.3251 -67.3249
   -67.3248 -67.3247 -67.3246 -67.3246 -67.3243 -67.3242 -67.3240 -67.3238
   -48.6389 -48.6389 -48.6389 -48.6389 -48.6280 -48.6274 -48.6231 -48.6225
   -48.6067 -48.6067 -48.6067 -48.6067 -48.5775 -48.5775 -48.5773 -48.5773
   -48.5600 -48.5594 -48.5575 -48.5574 -48.5568 -48.5567 -48.5536 -48.5532
   -48.5508 -48.5503 -48.5361 -48.5360 -48.5356 -48.5356 -48.5309 -48.5309
   -48.5309 -48.5309 -48.5270 -48.5264 -48.3835 -48.3834 -48.3834 -48.3834
   -48.3683 -48.3679 -48.3676 -48.3672 -48.3549 -48.3549 -48.3549 -48.3549
   -48.3286 -48.3279 -48.3258 -48.3257 -48.3251 -48.3250 -48.3242 -48.3242
   -48.3242 -48.3241 -48.3201 -48.3199 -48.3193 -48.3193 -48.3172 -48.3165
   -48.3110 -48.3107 -48.3104 -48.3100 -48.2954 -48.2954 -48.2954 -48.2954
   -48.0520 -48.0519 -48.0519 -48.0519 -48.0501 -48.0497 -48.0435 -48.0430
   -48.0319 -48.0319 -48.0319 -48.0319 -48.0224 -48.0224 -48.0224 -48.0224
   -48.0046 -48.0042 -47.9976 -47.9973 -47.9972 -47.9972 -47.9972 -47.9971
   -47.8685 -47.8681 -47.8671 -47.8666 -47.8614 -47.8613 -47.8609 -47.8609
   -47.8607 -47.8606 -47.8603 -47.8601  -5.3546  -5.3538  -4.5280  -4.5278
    -4.5272  -4.5271  -3.8077  -3.8070  -3.5474  -3.5469  -3.4583  -3.4583
    -3.4580  -3.4580  -3.3951  -3.3950  -3.3948  -3.3947  -3.1103  -3.1097
    -3.0388  -3.0388  -3.0388  -3.0388  -2.9175  -2.9168  -2.8472  -2.8471
    -2.8470  -2.8470  -2.8391  -2.8385  -2.7718  -2.7716  -2.7654  -2.7654
    -2.7652  -2.7651  -2.6897  -2.6896  -2.6894  -2.6894  -2.6279  -2.6273
    -2.6201  -2.6201  -2.5511  -2.5511  -2.5508  -2.5507  -2.5191  -2.5188
    -2.4876  -2.4870  -2.4648  -2.4647  -2.4645  -2.4644  -2.4063  -2.4063
    -2.4062  -2.4062  -2.3618  -2.3618  -2.3617  -2.3616  -2.3120  -2.3120
    -2.3118  -2.3118  -2.2355  -2.2355  -2.2354  -2.2354  -2.1610  -2.1604
    -2.1542  -2.1536  -2.1364  -2.1358  -1.9246  -1.9245  -1.9244  -1.9244
    -1.8581  -1.8580  -1.8577  -1.8577  -1.8216  -1.8216  -1.8214  -1.8213
    -1.7744  -1.7743  -1.7242  -1.7239  -1.6452  -1.6452  -1.6451  -1.6451
    -1.5680  -1.5676  -1.5238  -1.5238  -1.5236  -1.5236  -1.5108  -1.5104
    -1.4959  -1.4958  -1.4108  -1.4104  -1.2873  -1.2873  -1.2706  -1.2705
    -1.2701  -1.2700  -1.1747  -1.1747  -1.1746  -1.1746  -1.1157  -1.1156
    -1.1154  -1.1153  -1.1141  -1.1141  -1.1140  -1.1139  -0.9923  -0.9922
    -0.9770  -0.9770  -0.9770  -0.9770  -0.9741  -0.9741  -0.9661  -0.9660
    -0.9657  -0.9657  -0.9596  -0.9596  -0.9045  -0.9044  -0.8426  -0.8426
    -0.8212  -0.8211  -0.7136  -0.7135  -0.7135  -0.7135  -0.6372  -0.6372
    -0.6370  -0.6370  -0.5214  -0.5214  -0.5213  -0.5213  -0.4259  -0.4258
    -0.4256  -0.4255  -0.4051  -0.4050  -0.3921  -0.3921  -0.3921  -0.3921
    -0.3250  -0.3249  -0.3246  -0.3245  -0.2948  -0.2947  -0.2944  -0.2943
    -0.2878  -0.2878  -0.2866  -0.2866  -0.2864  -0.2864  -0.2620  -0.2619
    -0.2049  -0.2049  -0.2048  -0.2048  -0.1685  -0.1685  -0.1403  -0.1397
    -0.0770  -0.0769  -0.0765  -0.0764  -0.0653  -0.0652  -0.0651  -0.0650
    -0.0233  -0.0228  -0.0053  -0.0051   0.0361   0.0361   0.0363   0.0363
     0.0378   0.0378   0.0381   0.0381   0.0858   0.0862   0.0918   0.0918
     0.1070   0.1071   0.1073   0.1073   0.1173   0.1180   0.1333   0.1333
     0.1334   0.1334   0.2231   0.2236   0.2333   0.2333   0.2336   0.2336
     0.2347   0.2348   0.3080   0.3085   0.3126   0.3129   0.3133   0.3134
     0.3135   0.3135   0.3280   0.3280   0.3280   0.3281   0.3669   0.3669
     0.3669   0.3669   0.4043   0.4043   0.4043   0.4043   0.4713   0.4714
     0.4990   0.4993   0.5047   0.5047   0.5048   0.5049   0.6311   0.6315
     0.6432   0.6432   0.6434   0.6434   0.6625   0.6626   0.6636   0.6639
     0.6766   0.6767   0.6770   0.6770   0.6945   0.6945   0.7535   0.7538
     0.7862   0.7862   0.7865   0.7865   0.8545   0.8546   0.8547   0.8547
     0.8950   0.8952   0.9616   0.9616   0.9617   0.9618   0.9838   0.9840
     1.0859   1.0864   1.1691   1.1694   1.1976   1.1977   1.2068   1.2068
     1.2070   1.2071   1.2519   1.2520   1.2522   1.2523   1.4860   1.4860
     1.4864   1.4865   1.6342   1.6346   1.8360   1.8360   1.8362   1.8362
     3.0007   3.0007   3.0009   3.0009   3.1471   3.1475   3.2373   3.2374
     3.2374   3.2374   3.4757   3.4760   3.7893   3.7893   3.7897   3.7898
     4.3768   4.3768   4.3768   4.3769   4.7561   4.7561   4.7563   4.7563
     4.8267   4.8272   4.9840   4.9843   5.4265   5.4265   5.4265   5.4265
     5.4931   5.4932   5.8448   5.8449   5.8449   5.8450   5.9121   5.9121
     5.9122   5.9122   6.3264   6.3265   6.5110   6.5110   6.8662   6.8662
     6.8663   6.8664   7.0334   7.0339   7.2092   7.2093   7.2164   7.2164
     7.2165   7.2165   7.2800   7.2800   7.2801   7.2801   7.3025   7.3026
     7.3571   7.3571   7.5875   7.5875   7.5876   7.5876   8.1224   8.1224
     8.1225   8.1226   8.1456   8.1464   8.3720   8.3720   8.3721   8.3721
     8.5020   8.5025   8.6209   8.6211   8.6916   8.6917   9.1536   9.1537
     9.1538   9.1538   9.3950

          k = 0.2500 0.0000 0.0000 (158791 PWs)   bands (ev):

  -110.5268-110.5265-110.5263-110.5259-110.5258-110.5258-110.5258-110.5257
  -110.5257-110.5253-110.5250-110.5248-109.9543-109.9541-109.9539-109.9536
  -109.9536-109.9535-109.9535-109.9535-109.9534-109.9531-109.9529-109.9527
   -67.9365 -67.9360 -67.9359 -67.9356 -67.9348 -67.9346 -67.9339 -67.9336
   -67.9331 -67.9331 -67.9328 -67.9317 -67.9311 -67.9300 -67.9297 -67.9297
   -67.9292 -67.9289 -67.9282 -67.9280 -67.9272 -67.9269 -67.9268 -67.9264
   -67.9077 -67.9074 -67.9072 -67.9067 -67.9066 -67.9066 -67.9066 -67.9066
   -67.9065 -67.9060 -67.9057 -67.9055 -67.3924 -67.3924 -67.3920 -67.3916
   -67.3914 -67.3913 -67.3908 -67.3905 -67.3893 -67.3892 -67.3892 -67.3889
   -67.3873 -67.3870 -67.3870 -67.3869 -67.3857 -67.3854 -67.3849 -67.3848
   -67.3846 -67.3842 -67.3838 -67.3838 -67.3255 -67.3253 -67.3251 -67.3247
   -67.3247 -67.3247 -67.3246 -67.3246 -67.3245 -67.3242 -67.3240 -67.3238
   -48.6404 -48.6404 -48.6400 -48.6382 -48.6273 -48.6273 -48.6255 -48.6249
   -48.6038 -48.6038 -48.6038 -48.6003 -48.5789 -48.5751 -48.5750 -48.5745
   -48.5638 -48.5638 -48.5621 -48.5620 -48.5575 -48.5556 -48.5507 -48.5495
   -48.5480 -48.5468 -48.5452 -48.5438 -48.5438 -48.5390 -48.5351 -48.5351
   -48.5267 -48.5219 -48.5219 -48.5178 -48.3866 -48.3866 -48.3784 -48.3775
   -48.3739 -48.3739 -48.3684 -48.3670 -48.3520 -48.3520 -48.3508 -48.3489
   -48.3304 -48.3299 -48.3283 -48.3280 -48.3269 -48.3269 -48.3247 -48.3228
   -48.3226 -48.3225 -48.3225 -48.3224 -48.3222 -48.3203 -48.3168 -48.3147
   -48.3113 -48.3098 -48.3053 -48.3053 -48.3003 -48.2993 -48.2929 -48.2929
   -48.0548 -48.0533 -48.0533 -48.0519 -48.0467 -48.0465 -48.0455 -48.0455
   -48.0350 -48.0340 -48.0340 -48.0323 -48.0184 -48.0175 -48.0175 -48.0156
   -48.0076 -48.0076 -48.0013 -48.0013 -48.0009 -48.0008 -47.9921 -47.9892
   -47.8732 -47.8713 -47.8683 -47.8669 -47.8633 -47.8629 -47.8618 -47.8618
   -47.8586 -47.8586 -47.8555 -47.8555  -5.8502  -5.3542  -4.4841  -4.2492
    -3.9900  -3.9898  -3.8208  -3.8206  -3.8073  -3.7226  -3.7226  -3.7107
    -3.6665  -3.5471  -3.3662  -3.3569  -3.3569  -3.1616  -3.1100  -3.0552
    -3.0552  -3.0524  -3.0505  -2.9782  -2.9781  -2.9647  -2.9647  -2.9172
    -2.8852  -2.8387  -2.7720  -2.7705  -2.7704  -2.7219  -2.7215  -2.6575
    -2.6453  -2.6406  -2.6270  -2.6225  -2.6224  -2.6204  -2.6195  -2.6103
    -2.6103  -2.5792  -2.5620  -2.5481  -2.5481  -2.5192  -2.4873  -2.4697
    -2.4696  -2.4662  -2.4540  -2.4311  -2.4311  -2.3853  -2.2939  -2.2938
    -2.2932  -2.2647  -2.2642  -2.2631  -2.1791  -2.1791  -2.1748  -2.1748
    -2.1635  -2.1622  -2.1621  -2.1607  -2.1553  -2.1553  -2.1540  -2.1362
    -2.1221  -2.1221  -2.0912  -2.0912  -2.0390  -2.0390  -2.0366  -2.0366
    -2.0345  -1.9929  -1.9617  -1.9449  -1.9336  -1.9336  -1.8796  -1.8323
    -1.8323  -1.8142  -1.7996  -1.7739  -1.7352  -1.7352  -1.7241  -1.6821
    -1.5834  -1.5790  -1.5790  -1.5673  -1.5497  -1.5457  -1.5457  -1.5113
    -1.4974  -1.4974  -1.4954  -1.4927  -1.4927  -1.4799  -1.4621  -1.4108
    -1.4104  -1.3775  -1.3775  -1.3381  -1.3381  -1.3237  -1.3222  -1.3159
    -1.2877  -1.2629  -1.2436  -1.2406  -1.2406  -1.1979  -1.0905  -1.0879
    -1.0879  -1.0603  -1.0603  -1.0241  -0.9923  -0.9740  -0.9602  -0.9602
    -0.9601  -0.9408  -0.9045  -0.8859  -0.8428  -0.8384  -0.8213  -0.7964
    -0.7963  -0.7083  -0.7083  -0.6648  -0.6648  -0.6424  -0.6375  -0.5739
    -0.5739  -0.5275  -0.5113  -0.5113  -0.5099  -0.4671  -0.4389  -0.4389
    -0.4052  -0.4043  -0.4043  -0.3667  -0.3598  -0.3488  -0.3488  -0.3176
    -0.3176  -0.3143  -0.3109  -0.3109  -0.3096  -0.3052  -0.3015  -0.3015
    -0.2878  -0.2875  -0.2848  -0.2645  -0.2645  -0.2613  -0.2547  -0.2283
    -0.2283  -0.2094  -0.2094  -0.1944  -0.1944  -0.1697  -0.1690  -0.1394
    -0.1202  -0.1202  -0.1086  -0.1083  -0.1083  -0.0790  -0.0718  -0.0718
    -0.0624  -0.0282  -0.0282  -0.0266  -0.0231  -0.0167  -0.0053   0.0088
     0.0088   0.0315   0.0534   0.0615   0.0860   0.0872   0.0872   0.0921
     0.1163   0.1180   0.1236   0.1236   0.1301   0.1301   0.1467   0.1467
     0.1535   0.1536   0.1964   0.2232   0.2281   0.2282   0.2343   0.2453
     0.2453   0.2460   0.2498   0.2598   0.2797   0.3085   0.3128   0.3534
     0.3842   0.3842   0.4050   0.4050   0.4123   0.4134   0.4135   0.4450
     0.4657   0.4717   0.4869   0.4869   0.4989   0.5069   0.5442   0.5442
     0.5505   0.5505   0.6043   0.6153   0.6314   0.6321   0.6631   0.6636
     0.6679   0.6728   0.6944   0.6962   0.6962   0.7013   0.7013   0.7038
     0.7169   0.7355   0.7403   0.7453   0.7453   0.7536   0.7876   0.8113
     0.8253   0.8369   0.8515   0.8515   0.8953   0.8967   0.9348   0.9349
     0.9387   0.9839   1.0201   1.0201   1.0294   1.0344   1.0616   1.0616
     1.0859   1.0939   1.0939   1.0997   1.0997   1.1612   1.1681   1.1864
     1.1976   1.2123   1.2220   1.2220   1.2276   1.3030   1.3030   1.3687
     1.3688   1.5790   1.5790   1.6345   1.8665   1.9707   1.9708   2.1062
     2.5368   2.5368   2.6879   2.7595   2.7596   2.7747   2.7747   2.8099
     2.8099   3.1218   3.1474   3.4557   3.4558   3.4760   3.6224   3.6637
     4.1446   4.1949   4.1950   4.3532   4.7604   4.7604   4.8241   4.8242
     4.8270   4.8493   4.8493   4.9841   5.4075   5.4930   5.5730   5.5731
     5.6010   5.8417   6.0324   6.0344   6.0344   6.0793   6.1019   6.3264
     6.3856   6.4160   6.4161   6.5110   6.7179   6.7855   6.7856   6.7901
     6.8757   6.8757   7.0335   7.0764   7.2092   7.2709   7.3025   7.3571
     7.4540   7.5778   7.8262   7.9542   7.9542   8.0294   8.0901   8.0902
     8.0921   8.1425   8.1425   8.1461   8.1688   8.1696   8.2069   8.2623
     8.2802   8.2803   8.4785   8.4921   8.5023   8.5726   8.5726   8.6210
     8.6269   8.6270   8.6498   8.6917   8.7328   8.7328   8.8564   8.8786
     8.8787   9.0112   9.0116

          k = 0.2500 0.3750 0.0000 (158766 PWs)   bands (ev):

  -110.5268-110.5265-110.5263-110.5259-110.5258-110.5258-110.5258-110.5257
  -110.5256-110.5253-110.5250-110.5248-109.9543-109.9541-109.9539-109.9537
  -109.9536-109.9535-109.9535-109.9535-109.9534-109.9531-109.9530-109.9528
   -67.9363 -67.9360 -67.9359 -67.9355 -67.9353 -67.9345 -67.9343 -67.9335
   -67.9335 -67.9326 -67.9322 -67.9317 -67.9311 -67.9307 -67.9303 -67.9293
   -67.9293 -67.9285 -67.9283 -67.9275 -67.9273 -67.9269 -67.9268 -67.9265
   -67.9077 -67.9074 -67.9072 -67.9068 -67.9067 -67.9066 -67.9066 -67.9065
   -67.9064 -67.9060 -67.9058 -67.9055 -67.3924 -67.3921 -67.3920 -67.3918
   -67.3917 -67.3911 -67.3906 -67.3905 -67.3899 -67.3894 -67.3888 -67.3884
   -67.3878 -67.3874 -67.3868 -67.3863 -67.3857 -67.3856 -67.3851 -67.3845
   -67.3844 -67.3842 -67.3841 -67.3837 -67.3255 -67.3253 -67.3251 -67.3249
   -67.3247 -67.3247 -67.3246 -67.3246 -67.3244 -67.3242 -67.3240 -67.3238
   -48.6411 -48.6403 -48.6371 -48.6364 -48.6323 -48.6300 -48.6207 -48.6207
   -48.6125 -48.6087 -48.5983 -48.5949 -48.5857 -48.5822 -48.5750 -48.5722
   -48.5640 -48.5621 -48.5602 -48.5591 -48.5581 -48.5553 -48.5525 -48.5500
   -48.5475 -48.5449 -48.5424 -48.5410 -48.5392 -48.5366 -48.5363 -48.5312
   -48.5286 -48.5285 -48.5229 -48.5205 -48.3870 -48.3821 -48.3799 -48.3790
   -48.3787 -48.3703 -48.3670 -48.3659 -48.3603 -48.3525 -48.3477 -48.3428
   -48.3360 -48.3312 -48.3298 -48.3278 -48.3260 -48.3255 -48.3247 -48.3246
   -48.3232 -48.3218 -48.3204 -48.3204 -48.3195 -48.3189 -48.3172 -48.3153
   -48.3128 -48.3118 -48.3077 -48.3004 -48.2996 -48.2980 -48.2969 -48.2924
   -48.0542 -48.0535 -48.0512 -48.0511 -48.0487 -48.0483 -48.0442 -48.0424
   -48.0393 -48.0360 -48.0301 -48.0281 -48.0242 -48.0214 -48.0184 -48.0110
   -48.0078 -48.0068 -48.0053 -47.9995 -47.9991 -47.9973 -47.9951 -47.9900
   -47.8716 -47.8698 -47.8668 -47.8656 -47.8636 -47.8630 -47.8621 -47.8617
   -47.8600 -47.8597 -47.8566 -47.8565  -5.7081  -5.2269  -4.6755  -4.3923
    -4.3432  -4.1261  -3.9001  -3.7389  -3.6494  -3.6270  -3.6243  -3.5467
    -3.5079  -3.4946  -3.3116  -3.3036  -3.3021  -3.2669  -3.2100  -3.1302
    -3.1161  -3.0976  -3.0817  -3.0621  -2.9886  -2.8465  -2.8453  -2.8210
    -2.8002  -2.7992  -2.7957  -2.7902  -2.7684  -2.7666  -2.7514  -2.7417
    -2.7138  -2.7071  -2.6873  -2.6845  -2.6725  -2.6612  -2.6599  -2.6587
    -2.6566  -2.6106  -2.5571  -2.5451  -2.5437  -2.5355  -2.5353  -2.5271
    -2.5260  -2.5066  -2.4723  -2.4530  -2.4398  -2.4375  -2.4292  -2.3452
    -2.3448  -2.3003  -2.2804  -2.2751  -2.2729  -2.2724  -2.2477  -2.2366
    -2.2310  -2.2263  -2.2149  -2.1921  -2.1753  -2.1707  -2.1212  -2.1123
    -2.0788  -2.0638  -2.0494  -2.0337  -1.9880  -1.9816  -1.9746  -1.9727
    -1.9451  -1.9257  -1.9243  -1.9107  -1.9035  -1.8991  -1.8905  -1.8829
    -1.8775  -1.8744  -1.8143  -1.7047  -1.6799  -1.6709  -1.6590  -1.5974
    -1.5739  -1.5622  -1.5327  -1.5035  -1.4886  -1.4874  -1.4806  -1.4718
    -1.4535  -1.4498  -1.4404  -1.4333  -1.4086  -1.3842  -1.3833  -1.3826
    -1.3774  -1.3528  -1.3097  -1.2995  -1.2695  -1.2678  -1.2673  -1.2668
    -1.2637  -1.2383  -1.2125  -1.2089  -1.1729  -1.1648  -1.1601  -1.1414
    -1.0484  -1.0357  -0.9947  -0.9903  -0.9823  -0.9431  -0.9420  -0.9307
    -0.8938  -0.8905  -0.8651  -0.8529  -0.8523  -0.8235  -0.7885  -0.7855
    -0.7630  -0.7606  -0.7070  -0.6971  -0.6960  -0.6913  -0.6856  -0.6747
    -0.6722  -0.6535  -0.6013  -0.5845  -0.4973  -0.4503  -0.4229  -0.4186
    -0.3863  -0.3848  -0.3837  -0.3744  -0.3658  -0.3612  -0.3507  -0.3426
    -0.3266  -0.3169  -0.3157  -0.3097  -0.3091  -0.3011  -0.2978  -0.2940
    -0.2905  -0.2814  -0.2792  -0.2592  -0.2544  -0.2542  -0.2407  -0.2284
    -0.1985  -0.1895  -0.1772  -0.1750  -0.1686  -0.1646  -0.1626  -0.1354
    -0.1301  -0.1237  -0.1184  -0.1092  -0.1054  -0.1043  -0.0933  -0.0635
    -0.0630  -0.0569  -0.0429  -0.0370  -0.0314  -0.0308  -0.0033   0.0148
     0.0179   0.0308   0.0371   0.0392   0.0699   0.0907   0.0909   0.0974
     0.1177   0.1262   0.1334   0.1366   0.1367   0.1625   0.1638   0.1724
     0.1787   0.1906   0.1986   0.2010   0.2237   0.2438   0.2440   0.2510
     0.2677   0.2770   0.2888   0.2954   0.2956   0.3023   0.3078   0.3190
     0.3312   0.3387   0.3392   0.3835   0.3853   0.3900   0.3929   0.4013
     0.4111   0.4183   0.4704   0.4741   0.4773   0.5088   0.5177   0.5202
     0.5315   0.5362   0.5448   0.5454   0.5461   0.5811   0.6242   0.6285
     0.6506   0.6513   0.6521   0.6546   0.6573   0.6600   0.6685   0.6878
     0.7235   0.7241   0.7246   0.7375   0.7494   0.7496   0.7648   0.7856
     0.7888   0.7908   0.8006   0.8057   0.8637   0.8708   0.8870   0.9245
     0.9259   0.9482   0.9530   0.9660   0.9829   1.0037   1.0067   1.0090
     1.0174   1.0633   1.0824   1.1242   1.1316   1.1545   1.1586   1.1603
     1.1848   1.2073   1.2074   1.2157   1.2518   1.2602   1.2761   1.3982
     1.5010   1.5592   1.7368   1.7941   1.9647   1.9855   2.0291   2.0926
     2.2651   2.5105   2.6143   2.6806   2.7978   2.9583   3.1617   3.2158
     3.4042   3.5066   3.5263   3.6277   3.6309   3.6836   3.8629   3.9853
     3.9936   4.0707   4.0819   4.1410   4.1682   4.5298   4.7691   5.0045
     5.0227   5.0455   5.0950   5.1568   5.2050   5.3931   5.5707   5.5882
     5.6846   5.7141   5.7837   5.8013   5.8890   5.9789   6.0162   6.0703
     6.1675   6.1892   6.3725   6.4532   6.5876   6.6407   6.7153   6.7940
     6.8558   6.9369   6.9373   7.0395   7.0902   7.1022   7.1439   7.2282
     7.3341   7.3927   7.4263   7.4620   7.5347   7.5654   7.7040   7.7224
     7.7455   7.8295   7.9306   8.0425   8.0516   8.0623   8.1018   8.1266
     8.2017   8.2076   8.3043   8.3373   8.3426   8.5809   8.6082   8.6249
     8.6301   8.6935   8.7527   8.7553   8.8277   8.8746   8.8880   8.9943
     9.1040   9.1309   9.1664

          k = 0.2500-0.7500 0.0000 (158786 PWs)   bands (ev):

  -110.5268-110.5265-110.5263-110.5259-110.5258-110.5258-110.5258-110.5257
  -110.5256-110.5253-110.5250-110.5248-109.9543-109.9541-109.9539-109.9537
  -109.9536-109.9535-109.9535-109.9535-109.9533-109.9531-109.9530-109.9528
   -67.9361 -67.9359 -67.9358 -67.9356 -67.9354 -67.9352 -67.9341 -67.9338
   -67.9328 -67.9322 -67.9322 -67.9319 -67.9309 -67.9306 -67.9306 -67.9300
   -67.9290 -67.9287 -67.9276 -67.9274 -67.9272 -67.9271 -67.9270 -67.9267
   -67.9077 -67.9074 -67.9071 -67.9068 -67.9067 -67.9066 -67.9066 -67.9065
   -67.9063 -67.9060 -67.9058 -67.9055 -67.3923 -67.3922 -67.3919 -67.3919
   -67.3916 -67.3915 -67.3904 -67.3904 -67.3899 -67.3898 -67.3884 -67.3884
   -67.3878 -67.3878 -67.3864 -67.3863 -67.3858 -67.3858 -67.3847 -67.3846
   -67.3843 -67.3843 -67.3840 -67.3839 -67.3255 -67.3253 -67.3251 -67.3249
   -67.3248 -67.3247 -67.3246 -67.3245 -67.3244 -67.3242 -67.3240 -67.3238
   -48.6404 -48.6404 -48.6344 -48.6344 -48.6337 -48.6336 -48.6178 -48.6178
   -48.6144 -48.6143 -48.5945 -48.5944 -48.5895 -48.5894 -48.5690 -48.5688
   -48.5680 -48.5677 -48.5594 -48.5588 -48.5554 -48.5548 -48.5522 -48.5516
   -48.5450 -48.5449 -48.5370 -48.5367 -48.5334 -48.5328 -48.5324 -48.5324
   -48.5323 -48.5323 -48.5279 -48.5273 -48.3838 -48.3838 -48.3801 -48.3801
   -48.3757 -48.3756 -48.3653 -48.3653 -48.3580 -48.3579 -48.3435 -48.3435
   -48.3354 -48.3354 -48.3284 -48.3277 -48.3269 -48.3262 -48.3244 -48.3237
   -48.3213 -48.3206 -48.3205 -48.3204 -48.3188 -48.3181 -48.3173 -48.3167
   -48.3139 -48.3139 -48.3026 -48.3026 -48.2990 -48.2990 -48.2948 -48.2948
   -48.0528 -48.0528 -48.0511 -48.0509 -48.0495 -48.0494 -48.0411 -48.0408
   -48.0393 -48.0392 -48.0296 -48.0296 -48.0237 -48.0237 -48.0149 -48.0149
   -48.0083 -48.0081 -48.0018 -48.0018 -47.9957 -47.9954 -47.9946 -47.9946
   -47.8678 -47.8674 -47.8665 -47.8660 -47.8637 -47.8632 -47.8627 -47.8623
   -47.8597 -47.8592 -47.8592 -47.8587  -5.2977  -5.2968  -4.8659  -4.8651
    -4.1583  -4.1577  -3.7767  -3.7760  -3.5830  -3.5826  -3.5576  -3.5571
    -3.5223  -3.5218  -3.4245  -3.4241  -3.2063  -3.2061  -3.1075  -3.1070
    -3.0698  -3.0698  -3.0093  -3.0090  -2.9305  -2.9304  -2.9207  -2.9206
    -2.8705  -2.8699  -2.8174  -2.8168  -2.7946  -2.7943  -2.7638  -2.7638
    -2.7471  -2.7469  -2.6864  -2.6863  -2.6857  -2.6852  -2.6468  -2.6463
    -2.6412  -2.6411  -2.6155  -2.6151  -2.5772  -2.5768  -2.5655  -2.5653
    -2.5223  -2.5222  -2.5120  -2.5119  -2.4380  -2.4377  -2.4263  -2.4261
    -2.4056  -2.4053  -2.2968  -2.2966  -2.2481  -2.2481  -2.2445  -2.2444
    -2.2418  -2.2412  -2.2277  -2.2275  -2.2121  -2.2120  -2.1801  -2.1799
    -2.1116  -2.1111  -2.0646  -2.0645  -2.0146  -2.0142  -1.9960  -1.9955
    -1.9394  -1.9393  -1.8673  -1.8672  -1.8068  -1.8068  -1.7594  -1.7591
    -1.7494  -1.7491  -1.7130  -1.7127  -1.6920  -1.6917  -1.6234  -1.6231
    -1.6159  -1.6159  -1.5413  -1.5413  -1.5349  -1.5347  -1.4318  -1.4313
    -1.3592  -1.3591  -1.3439  -1.3438  -1.3431  -1.3428  -1.3133  -1.3133
    -1.2924  -1.2920  -1.2682  -1.2681  -1.2035  -1.2033  -1.1427  -1.1427
    -1.1315  -1.1310  -1.0926  -1.0925  -1.0886  -1.0886  -1.0153  -1.0153
    -1.0000  -0.9999  -0.9876  -0.9872  -0.9786  -0.9785  -0.9387  -0.9385
    -0.9346  -0.9345  -0.8970  -0.8968  -0.8791  -0.8788  -0.8610  -0.8610
    -0.8232  -0.8231  -0.7730  -0.7730  -0.7167  -0.7166  -0.7113  -0.7110
    -0.6886  -0.6885  -0.5833  -0.5829  -0.4934  -0.4932  -0.4088  -0.4083
    -0.3969  -0.3969  -0.3964  -0.3963  -0.3596  -0.3594  -0.3559  -0.3556
    -0.3314  -0.3312  -0.3194  -0.3190  -0.2912  -0.2911  -0.2838  -0.2834
    -0.2829  -0.2829  -0.2631  -0.2630  -0.2262  -0.2260  -0.2224  -0.2224
    -0.1978  -0.1975  -0.1963  -0.1959  -0.1897  -0.1895  -0.1833  -0.1832
    -0.1815  -0.1811  -0.1675  -0.1674  -0.1136  -0.1135  -0.0809  -0.0808
    -0.0142  -0.0142  -0.0072  -0.0069   0.0190   0.0193   0.0228   0.0230
     0.0331   0.0336   0.0697   0.0698   0.0919   0.0922   0.1299   0.1300
     0.1346   0.1349   0.1508   0.1512   0.1549   0.1550   0.1639   0.1642
     0.1805   0.1807   0.1807   0.1807   0.1808   0.1811   0.2529   0.2531
     0.3031   0.3033   0.3065   0.3066   0.3148   0.3151   0.3249   0.3250
     0.3320   0.3320   0.3561   0.3561   0.3661   0.3662   0.3814   0.3815
     0.4124   0.4126   0.4128   0.4129   0.4161   0.4164   0.4308   0.4308
     0.4661   0.4665   0.5253   0.5254   0.5375   0.5375   0.5686   0.5687
     0.5787   0.5789   0.6014   0.6016   0.6573   0.6574   0.6667   0.6669
     0.7013   0.7013   0.7062   0.7065   0.7154   0.7156   0.7806   0.7807
     0.7851   0.7853   0.8177   0.8179   0.8300   0.8300   0.8363   0.8366
     0.8966   0.8967   0.9608   0.9610   0.9805   0.9806   1.0082   1.0085
     1.0696   1.0701   1.0947   1.0950   1.0962   1.0964   1.1460   1.1463
     1.2199   1.2202   1.2447   1.2450   1.2930   1.2931   1.3027   1.3029
     1.3325   1.3326   1.8167   1.8171   2.0426   2.0431   2.2124   2.2128
     2.4064   2.4064   2.8319   2.8319   3.1763   3.1767   3.4717   3.4722
     3.5495   3.5499   3.5659   3.5661   3.7197   3.7197   4.0462   4.0462
     4.1577   4.1578   4.2206   4.2210   4.3849   4.3854   4.8375   4.8378
     4.9231   4.9232   5.0337   5.0340   5.3884   5.3887   5.5235   5.5237
     5.5356   5.5357   5.5723   5.5726   5.8646   5.8647   5.9347   5.9348
     6.3276   6.3281   6.3830   6.3831   6.5344   6.5345   6.5688   6.5688
     6.8098   6.8099   6.8725   6.8725   6.9380   6.9380   7.0250   7.0251
     7.2485   7.2486   7.2653   7.2654   7.3188   7.3189   7.3592   7.3593
     7.6622   7.6623   7.6975   7.6975   7.8033   7.8034   8.0026   8.0027
     8.1379   8.1385   8.4458   8.4459   8.4614   8.4614   8.6008   8.6010
     8.6048   8.6049   8.7338   8.7339   8.8037   8.8044   8.8059   8.8059
     8.8386   8.8387   9.1839

          k =-0.5000 0.0000 0.0000 (158676 PWs)   bands (ev):

  -110.5268-110.5265-110.5263-110.5259-110.5258-110.5258-110.5258-110.5257
  -110.5257-110.5253-110.5250-110.5248-109.9543-109.9541-109.9539-109.9536
  -109.9536-109.9535-109.9535-109.9535-109.9534-109.9531-109.9529-109.9527
   -67.9362 -67.9361 -67.9361 -67.9360 -67.9341 -67.9341 -67.9340 -67.9338
   -67.9335 -67.9333 -67.9327 -67.9326 -67.9302 -67.9301 -67.9295 -67.9294
   -67.9290 -67.9288 -67.9288 -67.9287 -67.9269 -67.9267 -67.9267 -67.9266
   -67.9077 -67.9074 -67.9072 -67.9067 -67.9066 -67.9066 -67.9066 -67.9065
   -67.9065 -67.9060 -67.9057 -67.9055 -67.3925 -67.3925 -67.3917 -67.3916
   -67.3913 -67.3912 -67.3903 -67.3903 -67.3902 -67.3902 -67.3883 -67.3883
   -67.3879 -67.3879 -67.3860 -67.3860 -67.3859 -67.3859 -67.3850 -67.3849
   -67.3846 -67.3845 -67.3836 -67.3836 -67.3255 -67.3253 -67.3251 -67.3247
   -67.3247 -67.3247 -67.3246 -67.3246 -67.3245 -67.3242 -67.3240 -67.3238
   -48.6421 -48.6421 -48.6342 -48.6340 -48.6334 -48.6332 -48.6165 -48.6165
   -48.6164 -48.6164 -48.5913 -48.5913 -48.5870 -48.5870 -48.5655 -48.5655
   -48.5654 -48.5654 -48.5643 -48.5643 -48.5503 -48.5503 -48.5500 -48.5499
   -48.5498 -48.5498 -48.5442 -48.5442 -48.5415 -48.5415 -48.5414 -48.5414
   -48.5215 -48.5213 -48.5199 -48.5199 -48.3883 -48.3883 -48.3747 -48.3745
[...]
     2.6481   2.6481   2.7220   2.7220   2.8138   2.8139   2.8194   2.8195
     3.0392   3.0393   3.4969   3.4971   3.7919   3.7920   3.8853   3.8853
     3.9819   3.9821   4.4508   4.4508   4.5101   4.5102   4.6809   4.6809
     4.7185   4.7186   4.9356   4.9356   5.4299   5.4301   5.6602   5.6603
     5.7620   5.7621   5.9108   5.9108   6.0052   6.0052   6.0737   6.0738
     6.0831   6.0831   6.2820   6.2820   6.4293   6.4293   6.5143   6.5143
     6.5686   6.5686   6.9715   6.9716   7.0228   7.0228   7.1557   7.1557
     7.1618   7.1619   7.3216   7.3216   7.4115   7.4115   7.6867   7.6867
     7.8902   7.8902   7.9563   7.9563   8.0724   8.0725   8.1433   8.1433
     8.2034   8.2034   8.2154   8.2154   8.4113   8.4113   8.4350   8.4350
     8.5032   8.5033   8.6679   8.6679   8.8253   8.8253   8.9804   8.9804
     9.0155   9.0155   9.0883

          k =-0.5000-0.7500 0.0000 (158756 PWs)   bands (ev):

  -110.4554-110.4552-110.4549-110.4546-110.4545-110.4544-110.4544-110.4544
  -110.4543-110.4540-110.4537-110.4534-109.9519-109.9517-109.9515-109.9513
  -109.9512-109.9512-109.9511-109.9511-109.9510-109.9508-109.9506-109.9504
   -67.8648 -67.8647 -67.8644 -67.8643 -67.8640 -67.8638 -67.8633 -67.8631
   -67.8608 -67.8607 -67.8604 -67.8603 -67.8601 -67.8600 -67.8597 -67.8596
   -67.8573 -67.8570 -67.8566 -67.8564 -67.8561 -67.8560 -67.8557 -67.8555
   -67.8330 -67.8328 -67.8325 -67.8322 -67.8321 -67.8320 -67.8320 -67.8318
   -67.8317 -67.8315 -67.8312 -67.8309 -67.3899 -67.3899 -67.3899 -67.3899
   -67.3893 -67.3893 -67.3888 -67.3888 -67.3867 -67.3867 -67.3867 -67.3867
   -67.3852 -67.3852 -67.3852 -67.3852 -67.3831 -67.3831 -67.3826 -67.3826
   -67.3821 -67.3821 -67.3820 -67.3820 -67.3216 -67.3214 -67.3212 -67.3210
   -67.3209 -67.3208 -67.3207 -67.3206 -67.3205 -67.3203 -67.3201 -67.3199
   -48.3533 -48.3533 -48.3533 -48.3533 -48.3464 -48.3464 -48.3457 -48.3457
   -48.3319 -48.3319 -48.3319 -48.3319 -48.3244 -48.3244 -48.3238 -48.3238
   -48.3206 -48.3204 -48.3199 -48.3197 -48.3191 -48.3191 -48.3191 -48.3191
   -48.3164 -48.3158 -48.3158 -48.3151 -48.3093 -48.3091 -48.3087 -48.3085
   -48.3039 -48.3039 -48.3039 -48.3039 -48.2952 -48.2952 -48.2951 -48.2951
   -48.2892 -48.2890 -48.2886 -48.2884 -48.2858 -48.2851 -48.2851 -48.2845
   -48.2805 -48.2805 -48.2805 -48.2805 -48.2779 -48.2779 -48.2772 -48.2772
   -48.2758 -48.2756 -48.2752 -48.2750 -48.2695 -48.2695 -48.2695 -48.2695
   -48.2493 -48.2493 -48.2487 -48.2487 -48.2425 -48.2425 -48.2425 -48.2425
   -47.8718 -47.8718 -47.8717 -47.8717 -47.8640 -47.8640 -47.8636 -47.8636
   -47.8454 -47.8454 -47.8453 -47.8453 -47.8281 -47.8281 -47.8281 -47.8280
   -47.8094 -47.8093 -47.8090 -47.8089 -47.7996 -47.7996 -47.7995 -47.7995
   -47.6820 -47.6818 -47.6815 -47.6814 -47.6790 -47.6788 -47.6786 -47.6784
   -47.6783 -47.6779 -47.6779 -47.6775  -4.9246  -4.9244  -4.9238  -4.9236
    -3.5636  -3.5633  -3.5630  -3.5628  -3.4653  -3.4652  -3.4647  -3.4646
    -3.1567  -3.1565  -3.1562  -3.1561  -2.8564  -2.8564  -2.8562  -2.8562
    -2.7010  -2.7009  -2.7008  -2.7008  -2.6480  -2.6479  -2.6475  -2.6475
    -2.6402  -2.6401  -2.6401  -2.6400  -2.4761  -2.4761  -2.4760  -2.4760
    -2.4419  -2.4418  -2.4415  -2.4413  -2.4088  -2.4086  -2.4082  -2.4080
    -2.3984  -2.3983  -2.3981  -2.3979  -2.3245  -2.3244  -2.3243  -2.3242
    -2.2163  -2.2163  -2.2161  -2.2160  -2.1481  -2.1481  -2.1479  -2.1479
    -2.0498  -2.0497  -2.0495  -2.0495  -2.0213  -2.0213  -2.0212  -2.0212
    -1.9414  -1.9411  -1.9409  -1.9406  -1.9164  -1.9163  -1.9162  -1.9161
    -1.7725  -1.7724  -1.7722  -1.7722  -1.7680  -1.7677  -1.7676  -1.7673
    -1.7424  -1.7422  -1.7420  -1.7418  -1.6808  -1.6808  -1.6808  -1.6807
    -1.4106  -1.4106  -1.4103  -1.4102  -1.3908  -1.3907  -1.3904  -1.3902
    -1.3113  -1.3113  -1.3110  -1.3110  -1.2359  -1.2358  -1.2356  -1.2355
    -1.2216  -1.2216  -1.2215  -1.2214  -1.1950  -1.1950  -1.1949  -1.1949
    -1.1356  -1.1355  -1.1355  -1.1355  -0.9700  -0.9699  -0.9699  -0.9699
    -0.9510  -0.9510  -0.9509  -0.9509  -0.8990  -0.8989  -0.8987  -0.8985
    -0.8350  -0.8349  -0.8348  -0.8347  -0.7509  -0.7509  -0.7508  -0.7508
    -0.7403  -0.7403  -0.7403  -0.7403  -0.7217  -0.7217  -0.7217  -0.7216
    -0.7195  -0.7194  -0.7193  -0.7192  -0.5941  -0.5940  -0.5940  -0.5940
    -0.5453  -0.5452  -0.5451  -0.5450  -0.3590  -0.3589  -0.3589  -0.3588
    -0.3309  -0.3308  -0.3306  -0.3305  -0.2765  -0.2764  -0.2761  -0.2760
    -0.2312  -0.2312  -0.2310  -0.2310  -0.2155  -0.2154  -0.2153  -0.2152
    -0.1736  -0.1736  -0.1736  -0.1736  -0.1630  -0.1629  -0.1628  -0.1627
    -0.1135  -0.1135  -0.1134  -0.1133  -0.1041  -0.1041  -0.1040  -0.1040
    -0.0197  -0.0197  -0.0196  -0.0195  -0.0190  -0.0188  -0.0188  -0.0186
     0.0102   0.0102   0.0104   0.0105   0.1029   0.1030   0.1030   0.1030
     0.1108   0.1109   0.1110   0.1110   0.1643   0.1644   0.1645   0.1646
     0.1870   0.1871   0.1874   0.1875   0.2215   0.2216   0.2217   0.2217
     0.2228   0.2228   0.2229   0.2229   0.2808   0.2809   0.2810   0.2810
     0.2831   0.2831   0.2833   0.2834   0.3832   0.3832   0.3833   0.3833
     0.4066   0.4067   0.4069   0.4071   0.4163   0.4163   0.4164   0.4165
     0.4705   0.4705   0.4706   0.4707   0.4844   0.4844   0.4844   0.4844
     0.5088   0.5089   0.5090   0.5090   0.6401   0.6401   0.6401   0.6402
     0.6542   0.6543   0.6546   0.6547   0.6695   0.6696   0.6697   0.6697
     0.7301   0.7301   0.7304   0.7304   0.7993   0.7994   0.7996   0.7997
     0.8073   0.8073   0.8074   0.8075   0.9706   0.9706   0.9707   0.9707
     0.9830   0.9831   0.9831   0.9832   0.9910   0.9911   0.9913   0.9914
     1.0313   1.0314   1.0315   1.0315   1.0901   1.0902   1.0903   1.0904
     1.1264   1.1265   1.1267   1.1268   1.2779   1.2779   1.2781   1.2781
     1.5639   1.5640   1.5642   1.5643   2.2205   2.2206   2.2208   2.2209
     2.7081   2.7081   2.7086   2.7086   3.1605   3.1606   3.1609   3.1610
     3.5688   3.5689   3.5691   3.5692   3.8432   3.8433   3.8434   3.8435
     4.2529   4.2530   4.2531   4.2532   4.6723   4.6724   4.6727   4.6728
     4.9851   4.9852   4.9854   4.9855   5.2608   5.2608   5.2613   5.2614
     5.5315   5.5317   5.5317   5.5318   5.6029   5.6029   5.6030   5.6030
     6.4760   6.4761   6.4762   6.4762   6.6785   6.6785   6.6787   6.6787
     6.7063   6.7063   6.7067   6.7067   6.8042   6.8042   6.8043   6.8043
     7.3642   7.3642   7.3643   7.3644   7.4110   7.4111   7.4112   7.4112
     7.4232   7.4233   7.4234   7.4234   7.7065   7.7065   7.7066   7.7067
     8.1141   8.1141   8.1142   8.1143   8.5662   8.5662   8.5663   8.5664
     8.6431   8.6431   8.6432   8.6432   8.6757   8.6757   8.6759   8.6759
     8.8801   8.8801   8.8803

     the Fermi energy is     1.2639 ev

!    total energy              =  -16842.89388837 Ry
     estimated scf accuracy    <          2.5E-13 Ry
     smearing contrib. (-TS)   =       0.00309666 Ry
     internal energy E=F+TS    =  -16842.89698504 Ry

     The total energy is F=E-TS. E is the sum of the following terms:
     one-electron contribution = -170564.10962571 Ry
     hartree contribution      =   85464.80639656 Ry
     xc contribution           =   -2058.91338692 Ry
     ewald contribution        =   70315.31963103 Ry

     convergence has been achieved in   6 iterations

     negative rho (up, down):  2.827E+00 0.000E+00

     Forces acting on atoms (cartesian axes, Ry/au):

     atom    1 type  1   force =     0.00000000    0.00000000    0.00000062
     atom    2 type  1   force =     0.00000036   -0.00000002    0.00000089
     atom    3 type  2   force =     0.00000000   -0.00000007   -0.00000274
     atom    4 type  2   force =     0.00000010    0.00000000   -0.00000276
     atom    5 type  1   force =     0.00000000    0.00000000    0.00000073
     atom    6 type  1   force =     0.00000036    0.00000002    0.00000089
     atom    7 type  2   force =     0.00000000    0.00000007   -0.00000274
     atom    8 type  2   force =    -0.00000014    0.00000000   -0.00000284
     atom    9 type  1   force =     0.00000064    0.00000000    0.00000120
     atom   10 type  1   force =     0.00000000   -0.00000019    0.00000110
     atom   11 type  2   force =     0.00000003   -0.00000013   -0.00000288
     atom   12 type  2   force =     0.00000000    0.00000000   -0.00000303
     atom   13 type  1   force =     0.00000047    0.00000000    0.00000103
     atom   14 type  1   force =     0.00000000    0.00000019    0.00000110
     atom   15 type  2   force =     0.00000003    0.00000013   -0.00000288
     atom   16 type  2   force =     0.00000000    0.00000000   -0.00000281
     atom   17 type  1   force =    -0.00000064    0.00000000    0.00000120
     atom   18 type  1   force =    -0.00000036   -0.00000002    0.00000089
     atom   19 type  2   force =    -0.00000003   -0.00000013   -0.00000288
     atom   20 type  2   force =    -0.00000010    0.00000000   -0.00000276
     atom   21 type  1   force =    -0.00000047    0.00000000    0.00000103
     atom   22 type  1   force =    -0.00000036    0.00000002    0.00000089
     atom   23 type  2   force =    -0.00000003    0.00000013   -0.00000288
     atom   24 type  2   force =     0.00000014    0.00000000   -0.00000284
     atom   25 type  1   force =     0.00000000    0.00000000    0.00000492
     atom   26 type  1   force =     0.00000030    0.00000040    0.00000516
     atom   27 type  2   force =     0.00000000    0.00000002    0.00000132
     atom   28 type  2   force =     0.00000023    0.00000000    0.00000117
     atom   29 type  1   force =     0.00000000    0.00000000    0.00000616
     atom   30 type  1   force =     0.00000030   -0.00000040    0.00000516
     atom   31 type  2   force =     0.00000000   -0.00000002    0.00000132
     atom   32 type  2   force =     0.00000003    0.00000000    0.00000129
     atom   33 type  1   force =     0.00000067    0.00000000    0.00000437
     atom   34 type  1   force =     0.00000000    0.00000002    0.00000488
     atom   35 type  2   force =     0.00000017    0.00000021    0.00000115
     atom   36 type  2   force =     0.00000000    0.00000000    0.00000113
     atom   37 type  1   force =     0.00000022    0.00000000    0.00000531
     atom   38 type  1   force =     0.00000000   -0.00000002    0.00000488
     atom   39 type  2   force =     0.00000017   -0.00000021    0.00000115
     atom   40 type  2   force =     0.00000000    0.00000000    0.00000108
     atom   41 type  1   force =    -0.00000067    0.00000000    0.00000437
     atom   42 type  1   force =    -0.00000030    0.00000040    0.00000516
     atom   43 type  2   force =    -0.00000017    0.00000021    0.00000115
     atom   44 type  2   force =    -0.00000023    0.00000000    0.00000117
     atom   45 type  1   force =    -0.00000022    0.00000000    0.00000531
     atom   46 type  1   force =    -0.00000030   -0.00000040    0.00000516
     atom   47 type  2   force =    -0.00000017   -0.00000021    0.00000115
     atom   48 type  2   force =    -0.00000003    0.00000000    0.00000129
     atom   49 type  2   force =     0.00000000    0.00000000   -0.00000433
     atom   50 type  2   force =    -0.00000011    0.00000031   -0.00000433
     atom   51 type  2   force =     0.00000000    0.00000000   -0.00000412
     atom   52 type  2   force =    -0.00000011   -0.00000031   -0.00000433
     atom   53 type  2   force =    -0.00000001    0.00000000   -0.00000432
     atom   54 type  2   force =     0.00000000    0.00000013   -0.00000457
     atom   55 type  2   force =    -0.00000011    0.00000000   -0.00000463
     atom   56 type  2   force =     0.00000000   -0.00000013   -0.00000457
     atom   57 type  2   force =     0.00000001    0.00000000   -0.00000432
     atom   58 type  2   force =     0.00000011    0.00000031   -0.00000433
     atom   59 type  2   force =     0.00000011    0.00000000   -0.00000463
     atom   60 type  2   force =     0.00000011   -0.00000031   -0.00000433

     Total force =     0.000026     Total SCF correction =     0.000003
     SCF correction compared to forces is large: reduce conv_thr to get better values


     Computing stress (Cartesian axis) and pressure


     negative rho (up, down):  2.827E+00 0.000E+00
          total   stress  (Ry/bohr**3)                   (kbar)     P=      -12.13
  -0.00012222   0.00000000   0.00000000          -17.98        0.00        0.00
   0.00000000  -0.00012314   0.00000000            0.00      -18.11        0.00
   0.00000000   0.00000000  -0.00000197            0.00        0.00       -0.29

     Message from routine bfgs:
     history already reset at previous step: stopping

     bfgs converged in  20 scf cycles and  18 bfgs steps
     (criteria: energy <  1.0E-07 Ry, force <  1.0E-06 Ry/Bohr)

     End of BFGS Geometry Optimization

     Final energy   =  -16842.8938883719 Ry

     File /users/aafshar4/scratch/CuPd_rlx_1st_PBE.bfgs deleted, as requested
Begin final coordinates

ATOMIC_POSITIONS (angstrom)
Cu            0.0000000000        0.0000000000        0.4522241194
Cu            2.1121231685        2.1121270091        0.4522286587
Pd            0.0000000000        2.1121234582        1.9184454296
Pd            2.1121215502        0.0000000000        1.9184391462
Cu            0.0000000000        4.2242543590        0.4522308713
Cu            2.1121231685        6.3363833499        0.4522286587
Pd            0.0000000000        6.3363869008        1.9184454296
Pd            2.1121258636        4.2242543590        1.9184486977
Cu            4.2242553392        0.0000000000        0.4522297306
Cu            6.3363823590        2.1121143609        0.4522263055
Pd            4.2242531594        2.1121252585        1.9184436012
Pd            6.3363823590        0.0000000000        1.9184548913
Cu            4.2242441661        4.2242543590        0.4522256420
Cu            6.3363823590        6.3363959981        0.4522263055
Pd            4.2242531594        6.3363851005        1.9184436012
Pd            6.3363823590        4.2242543590        1.9184328122
Cu            8.4485077378        0.0000000000        0.4522297306
Cu           10.5606415495        2.1121270091        0.4522286587
Pd            8.4485099176        2.1121252585        1.9184436012
Pd           10.5606381558        0.0000000000        1.9184391462
Cu            8.4485189109        4.2242543590        0.4522256420
Cu           10.5606415495        6.3363833499        0.4522286587
Pd            8.4485099176        6.3363851005        1.9184436012
Pd           10.5606388544        4.2242543590        1.9184486977
Cu            0.0000000000        0.0000000000        3.4721196920
Cu            2.1121253118        2.1121179921        3.4721181522
Pd            0.0000000000        2.1121244582        4.9986783075
Pd            2.1121199898        0.0000000000        4.9986829896
Cu            0.0000000000        4.2242543590        3.4721151696
Cu            2.1121253118        6.3363923669        3.4721181522
Pd            0.0000000000        6.3363859008        4.9986783075
Pd            2.1121269362        4.2242543590        4.9986735564
Cu            4.2242438240        0.0000000000        3.4721218628
Cu            6.3363823590        2.1121283347        3.4721171107
Pd            4.2242531309        2.1121249741        4.9986770555
Pd            6.3363823590        0.0000000000        4.9986715434
Cu            4.2242558208        4.2242543590        3.4721147955
Cu            6.3363823590        6.3363820243        3.4721171107
Pd            4.2242531309        6.3363853849        4.9986770555
Pd            6.3363823590        4.2242543590        4.9986803011
Cu            8.4485192530        0.0000000000        3.4721218628
Cu           10.5606394062        2.1121179921        3.4721181522
Pd            8.4485099461        2.1121249741        4.9986770555
Pd           10.5606397162        0.0000000000        4.9986829896
Cu            8.4485072562        4.2242543590        3.4721147955
Cu           10.5606394062        6.3363923669        3.4721181522
Pd            8.4485099461        6.3363853849        4.9986770555
Pd           10.5606377818        4.2242543590        4.9986735564
Pd            0.0000000000        0.0000000000        6.7521111608
Pd            2.1121282263        2.1121258507        6.7521056598
Pd            0.0000000000        4.2242543590        6.7521026109
Pd            2.1121282263        6.3363845083        6.7521056598
Pd            4.2242559557        0.0000000000        6.7521053031
Pd            6.3363823590        2.1121195572        6.7521055067
Pd            4.2242518730        4.2242543590        6.7521050951
Pd            6.3363823590        6.3363908018        6.7521055067
Pd            8.4485071213        0.0000000000        6.7521053031
Pd           10.5606364917        2.1121258507        6.7521056598
Pd            8.4485112040        4.2242543590        6.7521050951
Pd           10.5606364917        6.3363845083        6.7521056598
End final coordinates



     Writing output data file /users/aafshar4/scratch/CuPd_rlx_1st_PBE.save/
 
     init_run     :     72.87s CPU     74.38s WALL (       1 calls)
     electrons    : 107398.86s CPU 108956.41s WALL (      20 calls)
     update_pot   :     91.35s CPU     91.81s WALL (      19 calls)
     forces       :    744.90s CPU    758.64s WALL (      20 calls)
     stress       :   8683.28s CPU   8716.52s WALL (      20 calls)

     Called by init_run:
     wfcinit      :     64.63s CPU     65.48s WALL (       1 calls)
     potinit      :      1.83s CPU      1.88s WALL (       1 calls)
     hinit0       :      2.66s CPU      2.73s WALL (       1 calls)

     Called by electrons:
     c_bands      :  92914.05s CPU  93814.84s WALL (     617 calls)
     sum_band     :  13043.80s CPU  13378.62s WALL (     617 calls)
     v_of_rho     :    325.54s CPU    346.92s WALL (     630 calls)
     newd         :   1042.27s CPU   1338.63s WALL (     630 calls)
     mix_rho      :     74.00s CPU     81.42s WALL (     617 calls)

     Called by c_bands:
     init_us_2    :    329.68s CPU    330.65s WALL (   11475 calls)
     cegterg      :  89659.72s CPU  90535.70s WALL (    5562 calls)

     Called by *egterg:
     cdiaghg      :   3303.78s CPU   3366.34s WALL (   19395 calls)
     h_psi        :  44209.08s CPU  44563.60s WALL (   19638 calls)
     s_psi        :   8996.54s CPU   8998.39s WALL (   19638 calls)
     g_psi        :     97.63s CPU     97.82s WALL (   14067 calls)

     Called by h_psi:
     h_psi:calbec :   9077.75s CPU   9082.03s WALL (   19638 calls)
     vloc_psi     :  25974.79s CPU  26106.52s WALL (   19638 calls)
     add_vuspsi   :   8995.58s CPU   9000.84s WALL (   19638 calls)

     General routines
     calbec       :  14103.93s CPU  14109.67s WALL (   26091 calls)
     fft          :    321.49s CPU    335.87s WALL (    8676 calls)
     ffts         :     11.29s CPU     11.35s WALL (    1247 calls)
     fftw         :  28607.76s CPU  28752.99s WALL (18362607 calls)
     interpolate  :     27.30s CPU     28.03s WALL (     630 calls)
 
     Parallel routines
     fft_scatt_xy :   5548.22s CPU   5573.02s WALL (18372530 calls)
     fft_scatt_yz :  10872.44s CPU  10947.99s WALL (18372530 calls)
 
     PWSCF        :   1d 8h30m CPU   1d 8h57m WALL

 
   This run was terminated on:   8: 9:49  11Aug2021            

=------------------------------------------------------------------------------=
   JOB DONE.
=------------------------------------------------------------------------------=
[1628683789.337878] [node1654:242382:0]          mpool.c:43   UCX  WARN  object 0x2ec4540 was not returned to mpool ucp_requests
[1628683789.338870] [node1653:55436:0]          mpool.c:43   UCX  WARN  object 0x49c9300 was not returned to mpool ucp_requests
[1628683789.337912] [node1654:242381:0]          mpool.c:43   UCX  WARN  object 0x313e000 was not returned to mpool ucp_requests
