
     Program PWSCF v.6.6 starts on 22Apr2021 at 20:18:18 

     This program is part of the open-source Quantum ESPRESSO suite
     for quantum simulation of materials; please cite
         "P. Giannozzi et al., J. Phys.:Condens. Matter 21 395502 (2009);
         "P. Giannozzi et al., J. Phys.:Condens. Matter 29 465901 (2017);
          URL http://www.quantum-espresso.org", 
     in publications or presentations arising from this work. More details at
     http://www.quantum-espresso.org/quote

     Parallel version (MPI), running on    16 processors

     MPI processes distributed on     2 nodes
     R & G space division:  proc/nbgrp/npool/nimage =      16
     Fft bands division:     nmany     =       1
     Waiting for input...
     Reading input from standard input
Warning: card  &CELL ignored
Warning: card     CELL_DYNAMICS = 'BFGS', ignored
Warning: card     PRESS=0.0, ignored
Warning: card     CELL_DOFREE = '2DXY', ignored
Warning: card / ignored

     Current dimensions of program PWSCF are:
     Max number of different atomic species (ntypx) = 10
     Max number of k-points (npk) =  40000
     Max angular momentum in pseudopotentials (lmaxx) =  3

     File /users/aafshar4/scratch/CuPd_rlx_1st_BBEF-vdW.update deleted, as requested

     File /users/aafshar4/scratch/CuPd_rlx_1st_BBEF-vdW.bfgs deleted, as requested

     IMPORTANT: XC functional enforced from input :
     Exchange-correlation= PBE
                           (   1   4   3   4   0   0   0)
     Any further DFT definition will be discarded
     Please, verify this is what you really want


     Subspace diagonalization in iterative solution of the eigenvalue problem:
     one sub-group per band group will be used
     scalapack distributed-memory algorithm (size of sub-group:  4*  4 procs)

     Found symmetry operation: I + (  0.1667  0.2500  0.0000)
     This is a supercell, fractional translations are disabled
     Message from routine setup:
     using ibrav=0 with symmetry is DISCOURAGED, use correct ibrav instead
 
     Parallelization info
     --------------------
     sticks:   dense  smooth     PW     G-vecs:    dense   smooth      PW
     Min        1235     456    121               315921    70878    9707
     Max        1236     457    123               315927    70883    9709
     Sum       19763    7301   1949              5054785  1134089  155333
 


     bravais-lattice index     =            0
     lattice parameter (alat)  =      23.9481  a.u.
     unit-cell volume          =   18062.9546 (a.u.)^3
     number of atoms/cell      =           48
     number of atomic types    =            2
     number of electrons       =       840.00
     number of Kohn-Sham states=          504
     kinetic-energy cutoff     =      60.0000  Ry
     charge density cutoff     =     650.0000  Ry
     convergence threshold     =      1.0E-10
     mixing beta               =       0.3000
     number of iterations used =            8  plain     mixing
     Exchange-correlation= PBE
                           (   1   4   3   4   0   0   0)
     nstep                     =           50


     celldm(1)=  23.948060  celldm(2)=   0.000000  celldm(3)=   0.000000
     celldm(4)=   0.000000  celldm(5)=   0.000000  celldm(6)=   0.000000

     crystal axes: (cart. coord. in units of alat)
               a(1) = (   1.000000   0.000000   0.000000 )  
               a(2) = (   0.000000   0.666667   0.000000 )  
               a(3) = (   0.000000   0.000000   1.972734 )  

     reciprocal axes: (cart. coord. in units 2 pi/alat)
               b(1) = (  1.000000  0.000000  0.000000 )  
               b(2) = (  0.000000  1.499998  0.000000 )  
               b(3) = (  0.000000  0.000000  0.506911 )  


     PseudoPot. # 1 for Cu read from file:
     ./pseudo-gbrv-pbe/cu_pbe_v1.2.uspp.F.UPF
     MD5 check sum: 6e991ff952a84172a2a52a1c1e996048
     Pseudo is Ultrasoft + core correction, Zval = 19.0
     Generated by new atomic code, or converted to UPF format
     Using radial grid of  867 points,  6 beta functions with: 
                l(1) =   0
                l(2) =   0
                l(3) =   1
                l(4) =   1
                l(5) =   2
                l(6) =   2
     Q(r) pseudized with  8 coefficients,  rinner =    1.150   1.150   1.150
                                                       1.150   1.150

     PseudoPot. # 2 for Pd read from file:
     ./pseudo-gbrv-pbe/pd_pbe_v1.4.uspp.F.UPF
     MD5 check sum: 2d733d2bc2cbfd217af676df1668a4bc
     Pseudo is Ultrasoft + core correction, Zval = 16.0
     Generated by new atomic code, or converted to UPF format
     Using radial grid of  887 points,  6 beta functions with: 
                l(1) =   0
                l(2) =   0
                l(3) =   1
                l(4) =   1
                l(5) =   2
                l(6) =   2
     Q(r) pseudized with  8 coefficients,  rinner =    1.130   1.130   1.130
                                                       1.130   1.130

     atomic species   valence    mass     pseudopotential
        Cu            19.00    63.54600     Cu( 1.00)
        Pd            16.00   106.42000     Pd( 1.00)

      4 Sym. Ops. (no inversion) found



   Cartesian axes

     site n.     atom                  positions (alat units)
         1           Cu  tau(   1) = (   0.0000000   0.0000000   0.0437355  )
         2           Cu  tau(   2) = (   0.1666664   0.1666666   0.0437372  )
         3           Pd  tau(   3) = (   0.0000000   0.1666658   0.1530228  )
         4           Pd  tau(   4) = (   0.1666660   0.0000000   0.1530226  )
         5           Cu  tau(   5) = (   0.0000000   0.3333332   0.0437404  )
         6           Cu  tau(   6) = (   0.1666664   0.5000000   0.0437372  )
         7           Pd  tau(   7) = (   0.0000000   0.5000008   0.1530228  )
         8           Pd  tau(   8) = (   0.1666670   0.3333332   0.1530224  )
         9           Cu  tau(   9) = (   0.3333349   0.0000000   0.0437394  )
        10           Cu  tau(  10) = (   0.4999999   0.1666644   0.0437382  )
        11           Pd  tau(  11) = (   0.3333330   0.1666672   0.1530225  )
        12           Pd  tau(  12) = (   0.4999999   0.0000000   0.1530246  )
        13           Cu  tau(  13) = (   0.3333334   0.3333332   0.0437374  )
        14           Cu  tau(  14) = (   0.4999999   0.5000022   0.0437382  )
        15           Pd  tau(  15) = (   0.3333330   0.4999994   0.1530225  )
        16           Pd  tau(  16) = (   0.4999999   0.3333332   0.1530210  )
        17           Cu  tau(  17) = (   0.6666647   0.0000000   0.0437394  )
        18           Cu  tau(  18) = (   0.8333333   0.1666666   0.0437372  )
        19           Pd  tau(  19) = (   0.6666667   0.1666672   0.1530225  )
        20           Pd  tau(  20) = (   0.8333333   0.0000000   0.1530226  )
        21           Cu  tau(  21) = (   0.6666662   0.3333332   0.0437374  )
        22           Cu  tau(  22) = (   0.8333333   0.5000000   0.0437372  )
        23           Pd  tau(  23) = (   0.6666667   0.4999994   0.1530225  )
        24           Pd  tau(  24) = (   0.8333327   0.3333332   0.1530224  )
        25           Cu  tau(  25) = (   0.0000000   0.0000000   0.2827943  )
        26           Cu  tau(  26) = (   0.1666664   0.1666666   0.2827960  )
        27           Pd  tau(  27) = (   0.0000000   0.1666658   0.3920816  )
        28           Pd  tau(  28) = (   0.1666660   0.0000000   0.3920814  )
        29           Cu  tau(  29) = (   0.0000000   0.3333332   0.2827992  )
        30           Cu  tau(  30) = (   0.1666664   0.5000000   0.2827960  )
        31           Pd  tau(  31) = (   0.0000000   0.5000008   0.3920816  )
        32           Pd  tau(  32) = (   0.1666670   0.3333332   0.3920812  )
        33           Cu  tau(  33) = (   0.3333349   0.0000000   0.2827982  )
        34           Cu  tau(  34) = (   0.4999999   0.1666644   0.2827970  )
        35           Pd  tau(  35) = (   0.3333330   0.1666672   0.3920813  )
        36           Pd  tau(  36) = (   0.4999999   0.0000000   0.3920834  )
        37           Cu  tau(  37) = (   0.3333334   0.3333332   0.2827962  )
        38           Cu  tau(  38) = (   0.4999999   0.5000022   0.2827970  )
        39           Pd  tau(  39) = (   0.3333330   0.4999994   0.3920813  )
        40           Pd  tau(  40) = (   0.4999999   0.3333332   0.3920798  )
        41           Cu  tau(  41) = (   0.6666647   0.0000000   0.2827982  )
        42           Cu  tau(  42) = (   0.8333333   0.1666666   0.2827960  )
        43           Pd  tau(  43) = (   0.6666667   0.1666672   0.3920813  )
        44           Pd  tau(  44) = (   0.8333333   0.0000000   0.3920814  )
        45           Cu  tau(  45) = (   0.6666662   0.3333332   0.2827962  )
        46           Cu  tau(  46) = (   0.8333333   0.5000000   0.2827960  )
        47           Pd  tau(  47) = (   0.6666667   0.4999994   0.3920813  )
        48           Pd  tau(  48) = (   0.8333327   0.3333332   0.3920812  )

     number of k points=     9  Methfessel-Paxton smearing, width (Ry)=  0.0200
                       cart. coord. in units 2pi/alat
        k(    1) = (   0.0000000   0.0000000   0.0000000), wk =   0.1250000
        k(    2) = (   0.0000000   0.3749996   0.0000000), wk =   0.2500000
        k(    3) = (   0.0000000  -0.7499991   0.0000000), wk =   0.1250000
        k(    4) = (   0.2500000   0.0000000   0.0000000), wk =   0.2500000
        k(    5) = (   0.2500000   0.3749996   0.0000000), wk =   0.5000000
        k(    6) = (   0.2500000  -0.7499991   0.0000000), wk =   0.2500000
        k(    7) = (  -0.5000000   0.0000000   0.0000000), wk =   0.1250000
        k(    8) = (  -0.5000000   0.3749996   0.0000000), wk =   0.2500000
        k(    9) = (  -0.5000000  -0.7499991   0.0000000), wk =   0.1250000

     Dense  grid:  5054785 G-vectors     FFT dimensions: ( 200, 135, 384)

     Smooth grid:  1134089 G-vectors     FFT dimensions: ( 120,  80, 240)

     Estimated max dynamical RAM per process >       2.17 GB

     Estimated total dynamical RAM >      34.73 GB

     Initial potential from superposition of free atoms

     starting charge  803.99979, renormalised to  840.00000

     negative rho (up, down):  1.908E+00 0.000E+00
     Starting wfcs are  600 randomized atomic wfcs

     total cpu time spent up to now is       50.7 secs

     Self-consistent Calculation

     iteration #  1     ecut=    60.00 Ry     beta= 0.30
     Davidson diagonalization with overlap
     ethr =  1.00E-02,  avg # of iterations =  9.9

     negative rho (up, down):  1.843E+00 0.000E+00

     total cpu time spent up to now is      270.4 secs

     total energy              =  -13695.63088767 Ry
     estimated scf accuracy    <    1645.22571523 Ry

     iteration #  2     ecut=    60.00 Ry     beta= 0.30
     Davidson diagonalization with overlap
     ethr =  1.00E-02,  avg # of iterations = 14.2

     negative rho (up, down):  1.850E+00 0.000E+00

     total cpu time spent up to now is      699.0 secs

     total energy              =  -13680.50904563 Ry
     estimated scf accuracy    <   21968.48041278 Ry

     iteration #  3     ecut=    60.00 Ry     beta= 0.30
     Davidson diagonalization with overlap
     ethr =  1.00E-02,  avg # of iterations = 11.9

     negative rho (up, down):  1.877E+00 0.000E+00

     total cpu time spent up to now is     1010.1 secs

     total energy              =  -14433.74885467 Ry
     estimated scf accuracy    <     777.10630044 Ry

     iteration #  4     ecut=    60.00 Ry     beta= 0.30
     Davidson diagonalization with overlap
     ethr =  1.00E-02,  avg # of iterations =  3.4

     negative rho (up, down):  1.882E+00 0.000E+00

     total cpu time spent up to now is     1156.0 secs

     total energy              =  -14475.08377324 Ry
     estimated scf accuracy    <     169.51502937 Ry

     iteration #  5     ecut=    60.00 Ry     beta= 0.30
     Davidson diagonalization with overlap
     ethr =  1.00E-02,  avg # of iterations =  1.1

     negative rho (up, down):  1.880E+00 0.000E+00

     total cpu time spent up to now is     1256.7 secs

     total energy              =  -14472.59348330 Ry
     estimated scf accuracy    <      60.66506272 Ry

     iteration #  6     ecut=    60.00 Ry     beta= 0.30
     Davidson diagonalization with overlap
     ethr =  7.22E-03,  avg # of iterations =  1.1

     negative rho (up, down):  1.880E+00 0.000E+00

     total cpu time spent up to now is     1357.3 secs

     total energy              =  -14469.52520560 Ry
     estimated scf accuracy    <      82.46976758 Ry

     iteration #  7     ecut=    60.00 Ry     beta= 0.30
     Davidson diagonalization with overlap
     ethr =  7.22E-03,  avg # of iterations =  1.1

     negative rho (up, down):  1.881E+00 0.000E+00

     total cpu time spent up to now is     1458.1 secs

     total energy              =  -14467.70032182 Ry
     estimated scf accuracy    <      77.39780149 Ry

     iteration #  8     ecut=    60.00 Ry     beta= 0.30
     Davidson diagonalization with overlap
     ethr =  7.22E-03,  avg # of iterations =  1.2

     negative rho (up, down):  1.882E+00 0.000E+00

     total cpu time spent up to now is     1560.4 secs

     total energy              =  -14466.93491398 Ry
     estimated scf accuracy    <      84.47322232 Ry

     iteration #  9     ecut=    60.00 Ry     beta= 0.30
     Davidson diagonalization with overlap
     ethr =  7.22E-03,  avg # of iterations =  1.1

     negative rho (up, down):  1.882E+00 0.000E+00

     total cpu time spent up to now is     1661.2 secs

     total energy              =  -14466.65584292 Ry
     estimated scf accuracy    <      35.18224576 Ry

     iteration # 10     ecut=    60.00 Ry     beta= 0.30
     Davidson diagonalization with overlap
     ethr =  4.19E-03,  avg # of iterations =  1.2

     negative rho (up, down):  1.882E+00 0.000E+00

     total cpu time spent up to now is     1763.8 secs

     total energy              =  -14456.44680927 Ry
     estimated scf accuracy    <      30.18001718 Ry

     iteration # 11     ecut=    60.00 Ry     beta= 0.30
     Davidson diagonalization with overlap
     ethr =  3.59E-03,  avg # of iterations =  4.2

     negative rho (up, down):  1.879E+00 0.000E+00

     total cpu time spent up to now is     1899.0 secs

     total energy              =  -14457.16639111 Ry
     estimated scf accuracy    <      81.12928714 Ry

     iteration # 12     ecut=    60.00 Ry     beta= 0.30
     Davidson diagonalization with overlap
     ethr =  3.59E-03,  avg # of iterations =  1.4

     negative rho (up, down):  1.880E+00 0.000E+00

     total cpu time spent up to now is     2004.4 secs

     total energy              =  -14458.01083049 Ry
     estimated scf accuracy    <       9.32810378 Ry

     iteration # 13     ecut=    60.00 Ry     beta= 0.30
     Davidson diagonalization with overlap
     ethr =  1.11E-03,  avg # of iterations =  2.2

     negative rho (up, down):  1.879E+00 0.000E+00

     total cpu time spent up to now is     2118.8 secs

     total energy              =  -14458.41860684 Ry
     estimated scf accuracy    <       4.31789350 Ry

     iteration # 14     ecut=    60.00 Ry     beta= 0.30
     Davidson diagonalization with overlap
     ethr =  5.14E-04,  avg # of iterations =  5.2

     negative rho (up, down):  1.879E+00 0.000E+00

     total cpu time spent up to now is     2239.4 secs

     total energy              =  -14458.30738144 Ry
     estimated scf accuracy    <       1.96909662 Ry

     iteration # 15     ecut=    60.00 Ry     beta= 0.30
     Davidson diagonalization with overlap
     ethr =  2.34E-04,  avg # of iterations = 14.0

     negative rho (up, down):  1.879E+00 0.000E+00

     total cpu time spent up to now is     2398.6 secs

     total energy              =  -14458.34085965 Ry
     estimated scf accuracy    <       5.74898501 Ry

     iteration # 16     ecut=    60.00 Ry     beta= 0.30
     Davidson diagonalization with overlap
     ethr =  2.34E-04,  avg # of iterations =  1.3

     negative rho (up, down):  1.879E+00 0.000E+00

     total cpu time spent up to now is     2502.8 secs

     total energy              =  -14458.44066565 Ry
     estimated scf accuracy    <       1.25258486 Ry

     iteration # 17     ecut=    60.00 Ry     beta= 0.30
     Davidson diagonalization with overlap
     ethr =  1.49E-04,  avg # of iterations =  2.4

     negative rho (up, down):  1.879E+00 0.000E+00

     total cpu time spent up to now is     2617.2 secs

     total energy              =  -14458.37887688 Ry
     estimated scf accuracy    <       1.51579085 Ry

     iteration # 18     ecut=    60.00 Ry     beta= 0.30
     Davidson diagonalization with overlap
     ethr =  1.49E-04,  avg # of iterations =  2.0

     negative rho (up, down):  1.879E+00 0.000E+00

     total cpu time spent up to now is     2731.5 secs

     total energy              =  -14458.36678491 Ry
     estimated scf accuracy    <       1.59209252 Ry

     iteration # 19     ecut=    60.00 Ry     beta= 0.30
     Davidson diagonalization with overlap
     ethr =  1.49E-04,  avg # of iterations =  3.8

     negative rho (up, down):  1.879E+00 0.000E+00

     total cpu time spent up to now is     2848.4 secs

     total energy              =  -14458.45306685 Ry
     estimated scf accuracy    <       0.57105538 Ry

     iteration # 20     ecut=    60.00 Ry     beta= 0.30
     Davidson diagonalization with overlap
     c_bands:  1 eigenvalues not converged
     c_bands:  3 eigenvalues not converged
     ethr =  6.80E-05,  avg # of iterations = 12.7

     negative rho (up, down):  1.879E+00 0.000E+00

     total cpu time spent up to now is     2982.0 secs

     total energy              =  -14458.43954023 Ry
     estimated scf accuracy    <       0.17587055 Ry

     iteration # 21     ecut=    60.00 Ry     beta= 0.30
     Davidson diagonalization with overlap
     c_bands:  1 eigenvalues not converged
     c_bands:  1 eigenvalues not converged
     ethr =  2.09E-05,  avg # of iterations = 12.7

     negative rho (up, down):  1.879E+00 0.000E+00

     total cpu time spent up to now is     3121.6 secs

     total energy              =  -14458.36838990 Ry
     estimated scf accuracy    <       1.50339507 Ry

     iteration # 22     ecut=    60.00 Ry     beta= 0.30
     Davidson diagonalization with overlap
     ethr =  2.09E-05,  avg # of iterations =  4.2

     negative rho (up, down):  1.879E+00 0.000E+00

     total cpu time spent up to now is     3243.6 secs

     total energy              =  -14458.46205125 Ry
     estimated scf accuracy    <       0.08430115 Ry

     iteration # 23     ecut=    60.00 Ry     beta= 0.30
     Davidson diagonalization with overlap
     ethr =  1.00E-05,  avg # of iterations =  1.7

     negative rho (up, down):  1.879E+00 0.000E+00

     total cpu time spent up to now is     3352.4 secs

     total energy              =  -14458.46224418 Ry
     estimated scf accuracy    <       0.06536286 Ry

     iteration # 24     ecut=    60.00 Ry     beta= 0.30
     Davidson diagonalization with overlap
     c_bands:  1 eigenvalues not converged
     ethr =  7.78E-06,  avg # of iterations =  5.3

     negative rho (up, down):  1.879E+00 0.000E+00

     total cpu time spent up to now is     3470.6 secs

     total energy              =  -14458.46289027 Ry
     estimated scf accuracy    <       0.02705269 Ry

     iteration # 25     ecut=    60.00 Ry     beta= 0.30
     Davidson diagonalization with overlap
     ethr =  3.22E-06,  avg # of iterations =  3.6

     negative rho (up, down):  1.879E+00 0.000E+00

     total cpu time spent up to now is     3586.6 secs

     total energy              =  -14458.46231610 Ry
     estimated scf accuracy    <       0.04660859 Ry

     iteration # 26     ecut=    60.00 Ry     beta= 0.30
     Davidson diagonalization with overlap
     ethr =  3.22E-06,  avg # of iterations =  1.7

     negative rho (up, down):  1.879E+00 0.000E+00

     total cpu time spent up to now is     3695.6 secs

     total energy              =  -14458.46349815 Ry
     estimated scf accuracy    <       0.01912894 Ry

     iteration # 27     ecut=    60.00 Ry     beta= 0.30
     Davidson diagonalization with overlap
     ethr =  2.28E-06,  avg # of iterations =  3.0

     negative rho (up, down):  1.879E+00 0.000E+00

     total cpu time spent up to now is     3805.2 secs

     total energy              =  -14458.46365367 Ry
     estimated scf accuracy    <       0.01977503 Ry

     iteration # 28     ecut=    60.00 Ry     beta= 0.30
     Davidson diagonalization with overlap
     ethr =  2.28E-06,  avg # of iterations =  2.1

     negative rho (up, down):  1.880E+00 0.000E+00

     total cpu time spent up to now is     3916.0 secs

     total energy              =  -14458.46396508 Ry
     estimated scf accuracy    <       0.00462226 Ry

     iteration # 29     ecut=    60.00 Ry     beta= 0.30
     Davidson diagonalization with overlap
     c_bands:  2 eigenvalues not converged
     ethr =  5.50E-07,  avg # of iterations = 12.3

     negative rho (up, down):  1.880E+00 0.000E+00

     total cpu time spent up to now is     4051.4 secs

     total energy              =  -14458.46403973 Ry
     estimated scf accuracy    <       0.00296211 Ry

     iteration # 30     ecut=    60.00 Ry     beta= 0.30
     Davidson diagonalization with overlap
     ethr =  3.53E-07,  avg # of iterations =  8.4

     negative rho (up, down):  1.883E+00 0.000E+00

     total cpu time spent up to now is     4177.6 secs

     total energy              =  -14458.46414104 Ry
     estimated scf accuracy    <       0.00164829 Ry

     iteration # 31     ecut=    60.00 Ry     beta= 0.30
     Davidson diagonalization with overlap
     ethr =  1.96E-07,  avg # of iterations =  9.3

     negative rho (up, down):  1.882E+00 0.000E+00

     total cpu time spent up to now is     4306.9 secs

     total energy              =  -14458.46423125 Ry
     estimated scf accuracy    <       0.00025384 Ry

     iteration # 32     ecut=    60.00 Ry     beta= 0.30
     Davidson diagonalization with overlap
     ethr =  3.02E-08,  avg # of iterations =  3.0

     negative rho (up, down):  1.882E+00 0.000E+00

     total cpu time spent up to now is     4425.5 secs

     total energy              =  -14458.46424504 Ry
     estimated scf accuracy    <       0.00008646 Ry

     iteration # 33     ecut=    60.00 Ry     beta= 0.30
     Davidson diagonalization with overlap
     ethr =  1.03E-08,  avg # of iterations =  2.0

     negative rho (up, down):  1.882E+00 0.000E+00

     total cpu time spent up to now is     4538.8 secs

     total energy              =  -14458.46424857 Ry
     estimated scf accuracy    <       0.00003018 Ry

     iteration # 34     ecut=    60.00 Ry     beta= 0.30
     Davidson diagonalization with overlap
     ethr =  3.59E-09,  avg # of iterations =  2.0

     negative rho (up, down):  1.882E+00 0.000E+00

     total cpu time spent up to now is     4653.0 secs

     total energy              =  -14458.46424838 Ry
     estimated scf accuracy    <       0.00003452 Ry

     iteration # 35     ecut=    60.00 Ry     beta= 0.30
     Davidson diagonalization with overlap
     ethr =  3.59E-09,  avg # of iterations =  1.2

     negative rho (up, down):  1.882E+00 0.000E+00

     total cpu time spent up to now is     4755.6 secs

     total energy              =  -14458.46424816 Ry
     estimated scf accuracy    <       0.00003075 Ry

     iteration # 36     ecut=    60.00 Ry     beta= 0.30
     Davidson diagonalization with overlap
     ethr =  3.59E-09,  avg # of iterations =  1.4

     negative rho (up, down):  1.882E+00 0.000E+00

     total cpu time spent up to now is     4859.8 secs

     total energy              =  -14458.46424830 Ry
     estimated scf accuracy    <       0.00005287 Ry

     iteration # 37     ecut=    60.00 Ry     beta= 0.30
     Davidson diagonalization with overlap
     ethr =  3.59E-09,  avg # of iterations =  1.1

     negative rho (up, down):  1.882E+00 0.000E+00

     total cpu time spent up to now is     4960.8 secs

     total energy              =  -14458.46425022 Ry
     estimated scf accuracy    <       0.00000533 Ry

     iteration # 38     ecut=    60.00 Ry     beta= 0.30
     Davidson diagonalization with overlap
     ethr =  6.34E-10,  avg # of iterations =  1.1

     negative rho (up, down):  1.882E+00 0.000E+00

     total cpu time spent up to now is     5062.0 secs

     total energy              =  -14458.46425064 Ry
     estimated scf accuracy    <       0.00000122 Ry

     iteration # 39     ecut=    60.00 Ry     beta= 0.30
     Davidson diagonalization with overlap
     ethr =  1.45E-10,  avg # of iterations =  1.0

     negative rho (up, down):  1.882E+00 0.000E+00

     total cpu time spent up to now is     5161.7 secs

     total energy              =  -14458.46425066 Ry
     estimated scf accuracy    <       0.00000043 Ry

     iteration # 40     ecut=    60.00 Ry     beta= 0.30
     Davidson diagonalization with overlap
     ethr =  5.11E-11,  avg # of iterations =  2.1

     negative rho (up, down):  1.882E+00 0.000E+00

     total cpu time spent up to now is     5277.3 secs

     total energy              =  -14458.46425065 Ry
     estimated scf accuracy    <       0.00000214 Ry

     iteration # 41     ecut=    60.00 Ry     beta= 0.30
     Davidson diagonalization with overlap
     ethr =  5.11E-11,  avg # of iterations =  1.2

     negative rho (up, down):  1.882E+00 0.000E+00

     total cpu time spent up to now is     5378.7 secs

     total energy              =  -14458.46425080 Ry
     estimated scf accuracy    <       0.00000050 Ry

     iteration # 42     ecut=    60.00 Ry     beta= 0.30
     Davidson diagonalization with overlap
     ethr =  5.11E-11,  avg # of iterations =  1.1

     negative rho (up, down):  1.882E+00 0.000E+00

     total cpu time spent up to now is     5479.8 secs

     total energy              =  -14458.46425084 Ry
     estimated scf accuracy    <       0.00000014 Ry

     iteration # 43     ecut=    60.00 Ry     beta= 0.30
     Davidson diagonalization with overlap
     ethr =  1.63E-11,  avg # of iterations =  1.1

     negative rho (up, down):  1.881E+00 0.000E+00

     total cpu time spent up to now is     5580.9 secs

     total energy              =  -14458.46425087 Ry
     estimated scf accuracy    <       0.00000007 Ry

     iteration # 44     ecut=    60.00 Ry     beta= 0.30
     Davidson diagonalization with overlap
     ethr =  8.70E-12,  avg # of iterations =  1.1

     negative rho (up, down):  1.881E+00 0.000E+00

     total cpu time spent up to now is     5682.0 secs

     total energy              =  -14458.46425089 Ry
     estimated scf accuracy    <       0.00000002 Ry

     iteration # 45     ecut=    60.00 Ry     beta= 0.30
     Davidson diagonalization with overlap
     ethr =  1.94E-12,  avg # of iterations =  1.0

     negative rho (up, down):  1.881E+00 0.000E+00

     total cpu time spent up to now is     5781.6 secs

     total energy              =  -14458.46425089 Ry
     estimated scf accuracy    <          7.3E-09 Ry

     iteration # 46     ecut=    60.00 Ry     beta= 0.30
     Davidson diagonalization with overlap
     ethr =  8.64E-13,  avg # of iterations =  1.2

     negative rho (up, down):  1.881E+00 0.000E+00

     total cpu time spent up to now is     5883.3 secs

     total energy              =  -14458.46425089 Ry
     estimated scf accuracy    <       0.00000001 Ry

     iteration # 47     ecut=    60.00 Ry     beta= 0.30
     Davidson diagonalization with overlap
     ethr =  8.64E-13,  avg # of iterations =  1.2

     negative rho (up, down):  1.881E+00 0.000E+00

     total cpu time spent up to now is     5984.9 secs

     total energy              =  -14458.46425090 Ry
     estimated scf accuracy    <       0.00000001 Ry

     iteration # 48     ecut=    60.00 Ry     beta= 0.30
     Davidson diagonalization with overlap
     c_bands:  1 eigenvalues not converged
     ethr =  8.64E-13,  avg # of iterations =  3.1

     negative rho (up, down):  1.881E+00 0.000E+00

     total cpu time spent up to now is     6088.3 secs

     total energy              =  -14458.46425091 Ry
     estimated scf accuracy    <          6.5E-09 Ry

     iteration # 49     ecut=    60.00 Ry     beta= 0.30
     Davidson diagonalization with overlap
     ethr =  7.74E-13,  avg # of iterations =  1.1

     negative rho (up, down):  1.881E+00 0.000E+00

     total cpu time spent up to now is     6189.4 secs

     total energy              =  -14458.46425091 Ry
     estimated scf accuracy    <          3.7E-10 Ry

     iteration # 50     ecut=    60.00 Ry     beta= 0.30
     Davidson diagonalization with overlap
     ethr =  1.00E-13,  avg # of iterations =  1.0

     negative rho (up, down):  1.881E+00 0.000E+00

     total cpu time spent up to now is     6289.0 secs

     total energy              =  -14458.46425091 Ry
     estimated scf accuracy    <          4.0E-10 Ry

     iteration # 51     ecut=    60.00 Ry     beta= 0.30
     Davidson diagonalization with overlap
     ethr =  1.00E-13,  avg # of iterations =  1.0

     negative rho (up, down):  1.881E+00 0.000E+00

     total cpu time spent up to now is     6388.6 secs

     total energy              =  -14458.46425091 Ry
     estimated scf accuracy    <          1.6E-09 Ry

     iteration # 52     ecut=    60.00 Ry     beta= 0.30
     Davidson diagonalization with overlap
     ethr =  1.00E-13,  avg # of iterations =  1.0

     negative rho (up, down):  1.881E+00 0.000E+00

     total cpu time spent up to now is     6488.1 secs

     End of self-consistent calculation

          k = 0.0000 0.0000 0.0000 (141809 PWs)   bands (ev):

  -111.0746-111.0743-111.0741-111.0737-111.0736-111.0736-111.0736-111.0736
  -111.0735-111.0731-111.0729-111.0727-110.6862-110.6860-110.6858-110.6855
  -110.6854-110.6854-110.6854-110.6854-110.6853-110.6850-110.6848-110.6846
   -68.4758 -68.4754 -68.4753 -68.4752 -68.4752 -68.4745 -68.4739 -68.4737
   -68.4726 -68.4724 -68.4719 -68.4719 -68.4709 -68.4707 -68.4706 -68.4706
   -68.4705 -68.4701 -68.4700 -68.4700 -68.4699 -68.4699 -68.4699 -68.4699
   -68.4698 -68.4693 -68.4691 -68.4688 -68.4688 -68.4687 -68.4681 -68.4674
   -68.4673 -68.4672 -68.4672 -68.4667 -68.1314 -68.1312 -68.1312 -68.1311
   -68.1311 -68.1308 -68.1295 -68.1294 -68.1289 -68.1288 -68.1276 -68.1276
   -68.1269 -68.1269 -68.1257 -68.1256 -68.1251 -68.1250 -68.1237 -68.1234
   -68.1234 -68.1233 -68.1233 -68.1231 -68.0397 -68.0395 -68.0393 -68.0389
   -68.0389 -68.0388 -68.0388 -68.0388 -68.0387 -68.0383 -68.0382 -68.0379
   -49.0249 -49.0249 -49.0247 -49.0247 -49.0237 -49.0211 -49.0036 -49.0035
   -49.0018 -49.0017 -48.9844 -48.9844 -48.9807 -48.9807 -48.9792 -48.9750
   -48.9749 -48.9709 -48.9708 -48.9706 -48.9706 -48.9705 -48.9704 -48.9668
   -48.9667 -48.9632 -48.9630 -48.9630 -48.9614 -48.9613 -48.9428 -48.9410
   -48.9410 -48.9408 -48.9408 -48.9402 -48.5551 -48.5551 -48.5549 -48.5549
   -48.5533 -48.5522 -48.5340 -48.5339 -48.5320 -48.5319 -48.5129 -48.5129
   -48.5128 -48.5128 -48.4935 -48.4934 -48.4915 -48.4914 -48.4723 -48.4713
   -48.4713 -48.4712 -48.4711 -48.4711 -48.3687 -48.3646 -48.3645 -48.3607
   -48.3606 -48.3604 -48.3604 -48.3604 -48.3602 -48.3567 -48.3566 -48.3529
    -6.2396  -5.2729  -5.2727  -4.3238  -4.3203  -4.3201  -4.0389  -4.0353
    -4.0353  -4.0352  -4.0351  -3.7713  -3.7713  -3.6695  -3.6693  -3.5592
    -3.5592  -3.5591  -3.5590  -3.5249  -3.2580  -3.2074  -3.2072  -3.0887
    -3.0887  -3.0811  -3.0809  -2.9877  -2.9877  -2.9877  -2.9877  -2.9702
    -2.9190  -2.9174  -2.9169  -2.8703  -2.8702  -2.8292  -2.8291  -2.8034
    -2.7930  -2.7929  -2.7929  -2.7928  -2.7378  -2.7377  -2.7097  -2.7038
    -2.7038  -2.6118  -2.6117  -2.6090  -2.6089  -2.5419  -2.5418  -2.5085
    -2.5085  -2.4919  -2.4919  -2.4290  -2.4289  -2.4289  -2.4288  -2.4085
    -2.4085  -2.3522  -2.3519  -2.3249  -2.3248  -2.2978  -2.2978  -2.2977
    -2.2976  -2.2699  -2.2699  -2.2587  -2.2587  -2.2587  -2.2586  -2.1481
    -2.1481  -2.1161  -2.1161  -2.1052  -2.1051  -2.0055  -2.0054  -1.9817
    -1.9817  -1.9817  -1.9817  -1.9524  -1.9524  -1.9395  -1.9395  -1.9243
    -1.9243  -1.8483  -1.8358  -1.8357  -1.6914  -1.6899  -1.5895  -1.5894
    -1.5811  -1.5811  -1.5279  -1.4328  -1.4327  -1.4327  -1.4327  -1.4295
    -1.4295  -1.3508  -1.3506  -1.3502  -1.3501  -1.3118  -1.3117  -1.3117
    -1.3117  -1.2785  -1.2778  -1.2651  -1.2651  -1.2271  -1.2271  -1.1512
    -1.1172  -1.1172  -1.0804  -1.0512  -1.0512  -1.0512  -1.0512  -1.0343
    -1.0343  -1.0177  -1.0177  -0.9492  -0.9491  -0.9359  -0.9358  -0.9358
    -0.9358  -0.8162  -0.8162  -0.7310  -0.7310  -0.7309  -0.7309  -0.7006
    -0.7005  -0.6695  -0.6695  -0.6695  -0.6695  -0.6398  -0.6256  -0.6256
    -0.6255  -0.6131  -0.5841  -0.5840  -0.5609  -0.5609  -0.5251  -0.5250
    -0.5134  -0.5134  -0.5134  -0.5134  -0.5028  -0.5028  -0.4969  -0.4969
    -0.4577  -0.4415  -0.4415  -0.4325  -0.4109  -0.4108  -0.4108  -0.4108
    -0.3946  -0.3946  -0.3725  -0.3656  -0.3655  -0.3541  -0.3541  -0.3341
    -0.3223  -0.3222  -0.3053  -0.3053  -0.2148  -0.2148  -0.2011  -0.1686
    -0.1686  -0.1664  -0.1663  -0.1555  -0.1554  -0.1554  -0.1554  -0.1332
    -0.1326  -0.1059  -0.1059  -0.0784  -0.0784  -0.0784  -0.0784  -0.0308
    -0.0307  -0.0097  -0.0096   0.0115   0.0116   0.0954   0.0955   0.1044
     0.1044   0.1692   0.1912   0.2208   0.2213   0.2349   0.2349   0.2556
     0.2556   0.2667   0.2668   0.2669   0.2669   0.2719   0.2719   0.2916
     0.2916   0.3371   0.3371   0.3371   0.3371   0.3472   0.4169   0.4170
     0.4170   0.4170   0.4375   0.4375   0.4990   0.6445   0.7401   0.8814
     0.8815   1.0886   1.0887   1.0887   1.0888   1.7735   1.7736   2.3230
     2.3231   2.7779   2.7780   2.7780   2.7781   2.9492   2.9493   2.9493
     2.9493   3.0057   3.0061   3.0489   3.0490   3.0874   4.1210   4.1211
     4.4437   4.4437   4.4438   4.4438   4.7105   4.7106   4.7603   5.0823
     5.0824   5.2584   5.3188   5.3640   5.3641   5.5385   5.5385   5.5385
     5.5385   5.7183   5.7184   5.9740   5.9746   6.2261   6.2263   6.2667
     6.2669   6.4720   6.4982   6.5947   6.7382   6.7383   6.8878   6.8878
     6.9424   6.9424   7.2452   7.3989   7.3989   7.4355   7.4355   7.5073
     7.5074   7.5119   7.5121   7.5559   7.5561   7.7054   7.7054   7.7055
     7.7056   7.7854   7.7856   7.8158   7.9592   7.9592   7.9593   7.9593

          k = 0.0000 0.3750 0.0000 (141761 PWs)   bands (ev):

  -111.0746-111.0743-111.0741-111.0737-111.0737-111.0736-111.0736-111.0736
  -111.0735-111.0731-111.0729-111.0727-110.6862-110.6860-110.6858-110.6855
  -110.6854-110.6854-110.6854-110.6854-110.6853-110.6850-110.6848-110.6846
   -68.4757 -68.4757 -68.4756 -68.4748 -68.4748 -68.4742 -68.4740 -68.4740
   -68.4734 -68.4720 -68.4714 -68.4714 -68.4712 -68.4711 -68.4709 -68.4707
   -68.4705 -68.4705 -68.4701 -68.4700 -68.4700 -68.4699 -68.4699 -68.4697
   -68.4694 -68.4692 -68.4691 -68.4689 -68.4685 -68.4685 -68.4684 -68.4677
   -68.4677 -68.4670 -68.4669 -68.4668 -68.1316 -68.1316 -68.1312 -68.1307
   -68.1306 -68.1305 -68.1300 -68.1300 -68.1290 -68.1284 -68.1275 -68.1275
   -68.1270 -68.1270 -68.1261 -68.1255 -68.1245 -68.1245 -68.1240 -68.1239
   -68.1238 -68.1234 -68.1229 -68.1229 -68.0397 -68.0395 -68.0393 -68.0390
   -68.0389 -68.0389 -68.0388 -68.0388 -68.0386 -68.0383 -68.0382 -68.0379
   -49.0293 -49.0293 -49.0208 -49.0180 -49.0172 -49.0172 -49.0139 -49.0138
   -48.9997 -48.9962 -48.9851 -48.9851 -48.9799 -48.9799 -48.9785 -48.9747
   -48.9746 -48.9739 -48.9722 -48.9721 -48.9692 -48.9691 -48.9688 -48.9678
   -48.9671 -48.9670 -48.9653 -48.9636 -48.9518 -48.9518 -48.9477 -48.9477
   -48.9461 -48.9433 -48.9362 -48.9362 -48.5595 -48.5595 -48.5503 -48.5492
   -48.5475 -48.5475 -48.5440 -48.5440 -48.5284 -48.5281 -48.5155 -48.5155
   -48.5102 -48.5101 -48.4974 -48.4971 -48.4821 -48.4821 -48.4779 -48.4779
   -48.4754 -48.4744 -48.4665 -48.4665 -48.3680 -48.3643 -48.3642 -48.3636
   -48.3619 -48.3619 -48.3590 -48.3589 -48.3576 -48.3569 -48.3569 -48.3535
    -6.0959  -5.1578  -5.1576  -5.0416  -4.3992  -4.3990  -4.2177  -3.9684
    -3.8430  -3.8430  -3.8235  -3.7185  -3.7184  -3.7152  -3.7151  -3.6876
    -3.6875  -3.5379  -3.4610  -3.2295  -3.2295  -3.2033  -3.2033  -3.1946
    -3.1039  -3.1039  -3.0944  -3.0779  -3.0778  -3.0088  -3.0087  -3.0063
    -2.9680  -2.9372  -2.9272  -2.9272  -2.9025  -2.9025  -2.8902  -2.8250
    -2.8249  -2.8049  -2.7999  -2.7879  -2.7878  -2.7848  -2.7700  -2.6944
    -2.6824  -2.6364  -2.6363  -2.6178  -2.6178  -2.5821  -2.4910  -2.4909
    -2.4598  -2.4380  -2.4283  -2.4282  -2.4078  -2.4077  -2.4042  -2.4042
    -2.3834  -2.3833  -2.3451  -2.3320  -2.3283  -2.3193  -2.3192  -2.2722
    -2.2721  -2.2509  -2.2508  -2.2164  -2.2164  -2.2041  -2.2041  -2.1964
    -2.1963  -2.1648  -2.1272  -2.1271  -2.1187  -2.0838  -2.0838  -2.0781
    -2.0337  -2.0101  -1.8947  -1.8946  -1.8729  -1.7924  -1.7776  -1.7326
    -1.7326  -1.6916  -1.6292  -1.6292  -1.6254  -1.6254  -1.6206  -1.5716
    -1.4938  -1.4881  -1.4881  -1.4786  -1.4786  -1.4615  -1.4614  -1.4370
    -1.4315  -1.3997  -1.3997  -1.2926  -1.2926  -1.2896  -1.2860  -1.2859
    -1.2832  -1.2496  -1.2153  -1.2072  -1.2072  -1.1953  -1.1824  -1.1824
    -1.1494  -1.1494  -1.1434  -1.1355  -1.1355  -1.1322  -1.1322  -1.1060
    -1.0365  -1.0365  -1.0169  -1.0169  -1.0039  -0.9528  -0.9528  -0.8632
    -0.8380  -0.8379  -0.8256  -0.8256  -0.8105  -0.8104  -0.7764  -0.7554
    -0.7554  -0.7154  -0.7154  -0.6557  -0.6341  -0.6281  -0.6280  -0.6225
    -0.6190  -0.6032  -0.6032  -0.5857  -0.5857  -0.5664  -0.5278  -0.5278
    -0.5260  -0.5219  -0.5218  -0.4903  -0.4883  -0.4713  -0.4712  -0.4711
    -0.4626  -0.4576  -0.4490  -0.4490  -0.4443  -0.4389  -0.4389  -0.4153
    -0.3860  -0.3860  -0.3639  -0.3533  -0.3533  -0.3467  -0.3467  -0.3418
    -0.3312  -0.3160  -0.3159  -0.2700  -0.2515  -0.2216  -0.2216  -0.2174
    -0.2173  -0.2064  -0.2063  -0.2010  -0.2010  -0.1946  -0.1945  -0.1917
    -0.1507  -0.1506  -0.0881  -0.0808  -0.0649  -0.0511  -0.0511  -0.0410
    -0.0255  -0.0255   0.0098   0.0098   0.0113   0.0113   0.0227   0.0251
     0.1045   0.1046   0.1195   0.1195   0.1588   0.1639   0.1982   0.1984
     0.1984   0.1993   0.2024   0.2025   0.2279   0.2432   0.2615   0.2810
     0.2895   0.2896   0.3052   0.3052   0.3090   0.3861   0.3862   0.4362
     0.4723   0.4724   0.5116   0.5116   0.5759   0.7063   0.7064   0.8083
     0.9754   0.9754   1.8050   1.8051   1.9099   2.0535   2.1792   2.1792
     2.2743   2.3502   2.3503   2.4205   2.4206   2.4222   2.4222   3.0529
     3.0529   3.2314   3.4134   3.7188   3.7189   4.0515   4.0516   4.1937
     4.1937   4.2631   4.3917   4.6834   4.6835   4.7545   4.7545   4.7549
     4.7549   4.7808   4.8979   5.3973   5.4528   5.4805   5.6063   5.6063
     5.6560   5.6560   5.8340   5.8342   5.8832   5.8833   5.9682   6.2276
     6.3376   6.3378   6.3875   6.3876   6.4780   6.5169   6.5336   6.6506
     6.6755   6.7290   6.8255   6.8255   6.9388   6.9388   6.9550   6.9552
     7.3473   7.3474   7.4465   7.5181   7.5183   7.5955   7.5957   7.6831
     7.6833   7.7596   7.8113   7.8442   7.8544   8.0485   8.0498   8.0732

          k = 0.0000-0.7500 0.0000 (141708 PWs)   bands (ev):

  -111.0745-111.0743-111.0741-111.0738-111.0737-111.0736-111.0736-111.0736
  -111.0735-111.0731-111.0729-111.0727-110.6862-110.6860-110.6858-110.6856
  -110.6855-110.6854-110.6854-110.6853-110.6852-110.6850-110.6848-110.6846
   -68.4756 -68.4755 -68.4754 -68.4754 -68.4750 -68.4744 -68.4736 -68.4730
   -68.4728 -68.4728 -68.4727 -68.4726 -68.4709 -68.4707 -68.4704 -68.4701
   -68.4700 -68.4700 -68.4700 -68.4699 -68.4698 -68.4698 -68.4698 -68.4698
   -68.4696 -68.4696 -68.4694 -68.4691 -68.4689 -68.4689 -68.4682 -68.4676
   -68.4671 -68.4671 -68.4670 -68.4669 -68.1314 -68.1314 -68.1314 -68.1313
   -68.1305 -68.1300 -68.1299 -68.1294 -68.1287 -68.1287 -68.1286 -68.1286
   -68.1259 -68.1259 -68.1259 -68.1258 -68.1251 -68.1246 -68.1245 -68.1240
   -68.1232 -68.1231 -68.1231 -68.1231 -68.0396 -68.0394 -68.0393 -68.0391
   -68.0389 -68.0389 -68.0388 -68.0387 -68.0385 -68.0384 -68.0382 -68.0379
   -49.0266 -49.0266 -49.0266 -49.0266 -49.0128 -49.0121 -49.0096 -49.0090
   -48.9981 -48.9981 -48.9981 -48.9981 -48.9770 -48.9763 -48.9740 -48.9739
   -48.9733 -48.9732 -48.9683 -48.9681 -48.9676 -48.9675 -48.9673 -48.9673
   -48.9673 -48.9673 -48.9656 -48.9649 -48.9556 -48.9549 -48.9524 -48.9518
   -48.9386 -48.9386 -48.9386 -48.9386 -48.5568 -48.5568 -48.5568 -48.5568
   -48.5418 -48.5413 -48.5411 -48.5406 -48.5283 -48.5283 -48.5283 -48.5283
   -48.4977 -48.4977 -48.4977 -48.4976 -48.4845 -48.4840 -48.4838 -48.4833
   -48.4689 -48.4689 -48.4689 -48.4689 -48.3665 -48.3660 -48.3636 -48.3635
   -48.3631 -48.3630 -48.3580 -48.3579 -48.3575 -48.3574 -48.3553 -48.3548
    -5.6794  -5.6786  -4.8375  -4.8373  -4.8367  -4.8366  -3.9265  -3.9258
    -3.8107  -3.8102  -3.7209  -3.7208  -3.7205  -3.7204  -3.7066  -3.7066
    -3.7063  -3.7063  -3.2724  -3.2717  -3.2145  -3.2145  -3.2141  -3.2140
    -3.0989  -3.0988  -3.0987  -3.0987  -3.0634  -3.0630  -3.0199  -3.0193
    -3.0122  -3.0121  -3.0118  -3.0118  -2.9067  -2.9067  -2.9065  -2.9065
    -2.8734  -2.8730  -2.8120  -2.8114  -2.6816  -2.6811  -2.6372  -2.6371
    -2.6368  -2.6367  -2.6159  -2.6156  -2.5983  -2.5979  -2.5666  -2.5666
    -2.5663  -2.5662  -2.4854  -2.4854  -2.4853  -2.4853  -2.4378  -2.4378
    -2.4377  -2.4376  -2.3304  -2.3298  -2.2887  -2.2887  -2.2887  -2.2886
    -2.2575  -2.2575  -2.2572  -2.2571  -2.2383  -2.2378  -2.1468  -2.1467
    -2.1465  -2.1465  -2.1067  -2.1066  -2.1063  -2.1063  -1.9685  -1.9681
    -1.7923  -1.7922  -1.7635  -1.7633  -1.7263  -1.7261  -1.6845  -1.6843
    -1.6347  -1.6346  -1.6243  -1.6243  -1.6241  -1.6241  -1.5117  -1.5117
    -1.5115  -1.5114  -1.3988  -1.3988  -1.3987  -1.3987  -1.3285  -1.3284
    -1.3281  -1.3280  -1.3133  -1.3132  -1.3093  -1.3093  -1.3093  -1.3092
    -1.2657  -1.2654  -1.2247  -1.2245  -1.1824  -1.1824  -1.1822  -1.1821
    -1.1790  -1.1790  -1.1786  -1.1786  -1.1662  -1.1661  -1.1660  -1.1660
    -1.0469  -1.0468  -1.0268  -1.0268  -1.0266  -1.0266  -0.9676  -0.9676
    -0.9675  -0.9674  -0.8969  -0.8967  -0.8575  -0.8575  -0.8575  -0.8575
    -0.7071  -0.7071  -0.7071  -0.7071  -0.7050  -0.7049  -0.6176  -0.6176
    -0.6173  -0.6172  -0.6117  -0.6112  -0.6061  -0.6057  -0.5977  -0.5973
    -0.5719  -0.5719  -0.5718  -0.5717  -0.5235  -0.5230  -0.4815  -0.4814
    -0.4811  -0.4811  -0.4178  -0.4173  -0.3755  -0.3752  -0.3729  -0.3729
    -0.3729  -0.3729  -0.3430  -0.3427  -0.3370  -0.3369  -0.3369  -0.3369
    -0.3270  -0.3270  -0.3268  -0.3268  -0.2871  -0.2868  -0.2748  -0.2747
    -0.2745  -0.2744  -0.2080  -0.2080  -0.2077  -0.2077  -0.2055  -0.2055
    -0.1576  -0.1576  -0.1576  -0.1576  -0.1221  -0.1220  -0.1087  -0.1086
    -0.0857  -0.0856  -0.0853  -0.0853   0.0237   0.0240   0.0711   0.0711
     0.0712   0.0712   0.0875   0.0879   0.0984   0.0985   0.0987   0.0987
     0.2439   0.2444   0.2465   0.2469   0.3001   0.3003   0.3260   0.3260
     0.3260   0.3261   0.3560   0.3560   0.3828   0.3829   0.3831   0.3831
     0.4971   0.4972   0.4974   0.4974   1.0601   1.0605   1.1168   1.1168
     1.1170   1.1171   1.2954   1.2958   1.9515   1.9516   1.9520   1.9521
     2.6391   2.6392   2.6394   2.6394   2.6986   2.6986   2.6990   2.6991
     3.2414   3.2417   3.6690   3.6694   3.9975   3.9976   3.9976   3.9977
     4.3355   4.3360   4.3603   4.3604   4.3606   4.3607   4.9999   4.9999
     5.0002   5.0002   5.2033   5.2034   5.2035   5.2036   5.3037   5.3039
     5.6393   5.6393   5.8076   5.8077   5.8533   5.8534   6.1366   6.1367
     6.1367   6.1368   6.1891   6.1892   6.1892   6.1892   6.5841   6.5843
     6.5844   6.5844   6.7656   6.7656   6.7657   6.7658   6.9012   6.9017
     7.0873   7.0874   7.1331   7.1332   7.2044   7.2045   7.2045   7.2046
     7.5210   7.5215   7.7531   7.7537   8.0145   8.0146   8.0148   8.0148

          k = 0.2500 0.0000 0.0000 (141783 PWs)   bands (ev):

  -111.0746-111.0743-111.0741-111.0737-111.0736-111.0736-111.0736-111.0736
  -111.0735-111.0731-111.0729-111.0727-110.6862-110.6860-110.6858-110.6855
  -110.6854-110.6854-110.6854-110.6854-110.6853-110.6850-110.6848-110.6846
   -68.4757 -68.4757 -68.4757 -68.4749 -68.4746 -68.4744 -68.4742 -68.4733
   -68.4729 -68.4726 -68.4726 -68.4716 -68.4710 -68.4709 -68.4707 -68.4705
   -68.4700 -68.4700 -68.4700 -68.4699 -68.4699 -68.4699 -68.4699 -68.4698
   -68.4696 -68.4694 -68.4693 -68.4691 -68.4689 -68.4683 -68.4682 -68.4680
   -68.4676 -68.4669 -68.4669 -68.4668 -68.1316 -68.1316 -68.1313 -68.1307
   -68.1306 -68.1305 -68.1301 -68.1296 -68.1285 -68.1284 -68.1284 -68.1279
   -68.1266 -68.1261 -68.1261 -68.1260 -68.1249 -68.1244 -68.1240 -68.1239
   -68.1238 -68.1232 -68.1229 -68.1229 -68.0397 -68.0395 -68.0393 -68.0389
   -68.0389 -68.0388 -68.0388 -68.0388 -68.0387 -68.0384 -68.0381 -68.0379
   -49.0297 -49.0297 -49.0223 -49.0198 -49.0171 -49.0171 -49.0119 -49.0098
   -48.9953 -48.9953 -48.9938 -48.9922 -48.9789 -48.9767 -48.9730 -48.9729
   -48.9713 -48.9709 -48.9708 -48.9707 -48.9706 -48.9705 -48.9703 -48.9699
   -48.9699 -48.9686 -48.9652 -48.9633 -48.9547 -48.9527 -48.9485 -48.9485
   -48.9442 -48.9417 -48.9361 -48.9361 -48.5599 -48.5599 -48.5520 -48.5508
   -48.5472 -48.5472 -48.5420 -48.5403 -48.5254 -48.5254 -48.5244 -48.5222
   -48.5034 -48.5013 -48.5004 -48.5004 -48.4848 -48.4831 -48.4788 -48.4788
   -48.4738 -48.4725 -48.4664 -48.4664 -48.3684 -48.3663 -48.3627 -48.3606
   -48.3605 -48.3604 -48.3604 -48.3603 -48.3602 -48.3585 -48.3551 -48.3531
    -6.1755  -5.6790  -4.7997  -4.2869  -4.2867  -4.2761  -4.0967  -4.0965
    -4.0247  -4.0246  -4.0067  -3.9386  -3.9260  -3.8105  -3.5756  -3.5755
    -3.5072  -3.5071  -3.4965  -3.4118  -3.2721  -3.2720  -3.2719  -3.2296
    -3.1052  -3.0622  -3.0196  -2.9828  -2.9598  -2.9598  -2.9524  -2.9390
    -2.9389  -2.9069  -2.8731  -2.8513  -2.8512  -2.8452  -2.8332  -2.8133
    -2.7883  -2.7730  -2.7422  -2.7193  -2.7193  -2.7033  -2.7032  -2.6976
    -2.6815  -2.6540  -2.6436  -2.6436  -2.6155  -2.5977  -2.5773  -2.5772
    -2.5630  -2.5383  -2.5383  -2.4204  -2.4099  -2.4099  -2.4032  -2.3862
    -2.3862  -2.3511  -2.3491  -2.3444  -2.3305  -2.3251  -2.3251  -2.2900
    -2.2900  -2.2874  -2.2874  -2.2569  -2.2569  -2.2377  -2.2171  -2.2033
    -2.2013  -2.2013  -2.1279  -2.0938  -2.0306  -2.0305  -2.0296  -2.0174
    -2.0174  -1.9697  -1.9161  -1.9098  -1.9098  -1.8880  -1.8880  -1.8219
    -1.7919  -1.7632  -1.7326  -1.7261  -1.6878  -1.6845  -1.6346  -1.5749
    -1.5686  -1.5470  -1.5470  -1.5438  -1.5211  -1.5211  -1.4505  -1.4504
    -1.4490  -1.4490  -1.3893  -1.3864  -1.3416  -1.3416  -1.3162  -1.3126
    -1.2901  -1.2826  -1.2669  -1.2668  -1.2659  -1.2585  -1.2242  -1.1678
    -1.1678  -1.1532  -1.1276  -1.1112  -1.0519  -1.0519  -1.0469  -1.0049
    -1.0049  -0.9887  -0.9478  -0.9478  -0.9343  -0.9343  -0.9056  -0.8962
    -0.8581  -0.8067  -0.8067  -0.7937  -0.7937  -0.7408  -0.7408  -0.7049
    -0.6789  -0.6789  -0.6635  -0.6635  -0.6466  -0.6466  -0.6374  -0.6279
    -0.6230  -0.6116  -0.6059  -0.6039  -0.5978  -0.5931  -0.5931  -0.5471
    -0.5313  -0.5234  -0.5084  -0.5084  -0.4982  -0.4888  -0.4888  -0.4814
    -0.4716  -0.4507  -0.4482  -0.4383  -0.4178  -0.3980  -0.3947  -0.3947
    -0.3824  -0.3824  -0.3754  -0.3700  -0.3575  -0.3427  -0.3219  -0.3218
    -0.2919  -0.2907  -0.2907  -0.2868  -0.2803  -0.2562  -0.2562  -0.2358
    -0.2307  -0.2168  -0.2168  -0.2057  -0.1686  -0.1686  -0.1424  -0.1424
    -0.1218  -0.1083  -0.1005  -0.1003  -0.0967  -0.0924  -0.0496  -0.0496
    -0.0360   0.0238   0.0801   0.0878   0.1187   0.1187   0.1428   0.1471
     0.1471   0.1553   0.1648   0.1648   0.1790   0.2238   0.2436   0.2467
     0.2654   0.2672   0.2673   0.2755   0.2770   0.2818   0.2818   0.2847
     0.2848   0.2855   0.3006   0.3285   0.3285   0.3556   0.3702   0.4722
     0.4907   0.4907   0.5181   0.5181   0.6565   0.7160   0.8941   0.8942
     0.9927   0.9928   1.0606   1.2958   1.3018   1.3019   1.5328   2.1343
     2.1344   2.3601   2.4627   2.4628   2.6416   3.0594   3.0595   3.0934
     3.0935   3.1511   3.1975   3.2422   3.6692   3.6756   3.6757   3.8358
     4.2272   4.2273   4.3353   4.6901   4.8216   5.0323   5.0324   5.2783
     5.2783   5.2901   5.3038   5.3203   5.3567   5.3568   5.3784   5.6394
     5.8073   5.8073   5.8077   5.8534   5.8899   5.9415   5.9416   6.0887
     6.1275   6.2465   6.5664   6.6544   6.7006   6.7578   6.7954   6.9010
     6.9237   6.9238   7.0874   7.1331   7.3765   7.3846   7.3846   7.4285
     7.4285   7.4808   7.4808   7.5213   7.6091   7.6381   7.7535   7.7996
     7.7996   7.8813   7.8815   7.8818   7.8818   7.9988   7.9988   8.0277

          k = 0.2500 0.3750 0.0000 (141736 PWs)   bands (ev):

  -111.0746-111.0743-111.0741-111.0737-111.0737-111.0736-111.0736-111.0736
  -111.0735-111.0731-111.0729-111.0727-110.6862-110.6860-110.6858-110.6855
  -110.6855-110.6854-110.6854-110.6854-110.6853-110.6850-110.6848-110.6846
   -68.4757 -68.4756 -68.4754 -68.4752 -68.4750 -68.4742 -68.4739 -68.4737
   -68.4732 -68.4724 -68.4721 -68.4714 -68.4711 -68.4709 -68.4707 -68.4705
   -68.4704 -68.4702 -68.4701 -68.4700 -68.4699 -68.4699 -68.4698 -68.4697
   -68.4694 -68.4693 -68.4691 -68.4689 -68.4689 -68.4687 -68.4684 -68.4675
   -68.4674 -68.4671 -68.4670 -68.4668 -68.1316 -68.1313 -68.1312 -68.1310
   -68.1309 -68.1303 -68.1298 -68.1297 -68.1291 -68.1285 -68.1280 -68.1276
   -68.1270 -68.1265 -68.1260 -68.1254 -68.1248 -68.1247 -68.1243 -68.1236
   -68.1235 -68.1233 -68.1232 -68.1229 -68.0396 -68.0395 -68.0393 -68.0390
   -68.0389 -68.0388 -68.0388 -68.0387 -68.0386 -68.0384 -68.0381 -68.0379
   -49.0301 -49.0253 -49.0231 -49.0221 -49.0219 -49.0132 -49.0102 -49.0091
   -49.0035 -48.9956 -48.9909 -48.9858 -48.9793 -48.9783 -48.9762 -48.9744
   -48.9738 -48.9729 -48.9728 -48.9713 -48.9698 -48.9691 -48.9687 -48.9685
   -48.9678 -48.9656 -48.9638 -48.9620 -48.9559 -48.9550 -48.9510 -48.9436
   -48.9427 -48.9410 -48.9400 -48.9356 -48.5603 -48.5555 -48.5533 -48.5523
   -48.5521 -48.5437 -48.5404 -48.5393 -48.5336 -48.5260 -48.5211 -48.5162
   -48.5094 -48.5047 -48.4993 -48.4924 -48.4862 -48.4853 -48.4811 -48.4740
   -48.4730 -48.4714 -48.4703 -48.4659 -48.3678 -48.3658 -48.3635 -48.3626
   -48.3625 -48.3611 -48.3596 -48.3586 -48.3584 -48.3577 -48.3555 -48.3537
    -6.0334  -5.5507  -4.9937  -4.7033  -4.6456  -4.1772  -4.1743  -3.9360
    -3.9302  -3.8887  -3.8882  -3.7998  -3.7688  -3.7429  -3.6876  -3.6807
    -3.5620  -3.4948  -3.4376  -3.3946  -3.2454  -3.2322  -3.2257  -3.1791
    -3.1657  -3.1566  -3.0723  -3.0685  -3.0470  -2.9730  -2.9696  -2.9478
    -2.9400  -2.9320  -2.9293  -2.8989  -2.8913  -2.8782  -2.8576  -2.8417
    -2.8326  -2.8125  -2.8084  -2.7952  -2.7734  -2.7620  -2.7525  -2.7102
    -2.6986  -2.6671  -2.6273  -2.6014  -2.5949  -2.5889  -2.5887  -2.5720
    -2.4885  -2.4667  -2.4472  -2.4378  -2.4158  -2.4070  -2.3792  -2.3490
    -2.3468  -2.3359  -2.3351  -2.3212  -2.3042  -2.2993  -2.2896  -2.2844
    -2.2785  -2.2741  -2.2665  -2.2593  -2.2576  -2.2418  -2.2189  -2.2088
    -2.1995  -2.1610  -2.1521  -2.1465  -2.1389  -2.1342  -1.9641  -1.9566
    -1.9286  -1.8701  -1.8466  -1.8375  -1.8099  -1.8044  -1.7810  -1.7658
    -1.7234  -1.7093  -1.7058  -1.6902  -1.6788  -1.6582  -1.5539  -1.5478
    -1.5427  -1.5199  -1.5168  -1.5118  -1.4985  -1.4487  -1.4437  -1.4340
    -1.4233  -1.4060  -1.3666  -1.3584  -1.3323  -1.3097  -1.3033  -1.2962
    -1.2948  -1.2941  -1.2698  -1.2626  -1.2551  -1.2267  -1.2172  -1.1834
    -1.1572  -1.1480  -1.1477  -1.1448  -1.0938  -1.0716  -1.0669  -1.0488
    -1.0125  -1.0011  -1.0002  -0.9746  -0.9550  -0.9396  -0.9187  -0.9005
    -0.8558  -0.8557  -0.8157  -0.7949  -0.7866  -0.7734  -0.7725  -0.7723
    -0.7608  -0.7246  -0.7216  -0.7104  -0.6922  -0.6606  -0.6562  -0.6527
    -0.6465  -0.6361  -0.6264  -0.6091  -0.5932  -0.5851  -0.5541  -0.5534
    -0.5482  -0.5359  -0.5107  -0.5077  -0.5071  -0.4960  -0.4779  -0.4778
    -0.4688  -0.4666  -0.4649  -0.4521  -0.4398  -0.4288  -0.3973  -0.3848
    -0.3845  -0.3804  -0.3681  -0.3673  -0.3512  -0.3492  -0.3252  -0.3209
    -0.3101  -0.2993  -0.2984  -0.2826  -0.2801  -0.2658  -0.2607  -0.2533
    -0.2530  -0.2047  -0.2034  -0.1997  -0.1857  -0.1622  -0.1602  -0.1562
    -0.1190  -0.0990  -0.0929  -0.0754  -0.0647  -0.0394  -0.0390  -0.0354
    -0.0274  -0.0075   0.0050   0.0260   0.0556   0.0613   0.0631   0.0905
     0.1065   0.1146   0.1191   0.1274   0.1462   0.1485   0.1502   0.1562
     0.1830   0.2247   0.2422   0.2491   0.2992   0.2993   0.3110   0.3178
     0.3243   0.3383   0.3445   0.3538   0.3742   0.3848   0.3943   0.3998
     0.4322   0.4331   0.4658   0.4941   0.5212   0.5462   0.7812   0.8288
     0.8539   1.3462   1.3655   1.5918   1.9452   2.0406   2.0646   2.0786
     2.1899   2.2143   2.3835   2.4351   2.5801   2.6683   2.8721   2.9832
     3.0406   3.2900   3.3554   3.4789   3.7704   3.8620   3.9835   4.2777
     4.4174   4.4334   4.4588   4.4939   4.6860   4.7248   4.7902   4.8664
     4.8805   4.9232   4.9577   5.3913   5.4269   5.4294   5.4578   5.4718
     5.5117   5.5169   5.7110   5.9342   5.9720   5.9815   6.0178   6.0454
     6.1243   6.1854   6.3663   6.4039   6.5240   6.5692   6.6350   6.6729
     6.7152   6.7880   6.8491   6.8645   6.9151   6.9573   7.0003   7.0437
     7.1954   7.2206   7.2544   7.3999   7.4134   7.6797   7.6977   7.7724
     7.7907   7.7929   7.8242   7.8678   8.0045   8.0103   8.1289   8.1572

          k = 0.2500-0.7500 0.0000 (141742 PWs)   bands (ev):

  -111.0745-111.0743-111.0741-111.0738-111.0737-111.0736-111.0736-111.0735
  -111.0735-111.0731-111.0729-111.0727-110.6862-110.6860-110.6858-110.6856
  -110.6855-110.6854-110.6854-110.6853-110.6852-110.6850-110.6848-110.6846
   -68.4757 -68.4755 -68.4753 -68.4751 -68.4751 -68.4748 -68.4737 -68.4736
   -68.4730 -68.4726 -68.4718 -68.4716 -68.4710 -68.4709 -68.4708 -68.4707
   -68.4704 -68.4701 -68.4700 -68.4700 -68.4699 -68.4699 -68.4698 -68.4696
   -68.4696 -68.4694 -68.4691 -68.4690 -68.4689 -68.4688 -68.4678 -68.4674
   -68.4674 -68.4672 -68.4671 -68.4669 -68.1315 -68.1314 -68.1311 -68.1310
   -68.1308 -68.1307 -68.1296 -68.1295 -68.1291 -68.1289 -68.1276 -68.1276
   -68.1270 -68.1269 -68.1256 -68.1255 -68.1250 -68.1249 -68.1238 -68.1237
   -68.1235 -68.1234 -68.1231 -68.1230 -68.0396 -68.0395 -68.0393 -68.0391
   -68.0389 -68.0388 -68.0388 -68.0387 -68.0385 -68.0384 -68.0382 -68.0379
   -49.0269 -49.0269 -49.0232 -49.0232 -49.0189 -49.0188 -49.0085 -49.0084
   -49.0010 -49.0009 -48.9866 -48.9866 -48.9786 -48.9785 -48.9768 -48.9761
   -48.9752 -48.9745 -48.9725 -48.9718 -48.9695 -48.9688 -48.9671 -48.9664
   -48.9657 -48.9651 -48.9638 -48.9637 -48.9571 -48.9571 -48.9457 -48.9456
   -48.9422 -48.9422 -48.9380 -48.9380 -48.5572 -48.5572 -48.5534 -48.5534
   -48.5491 -48.5491 -48.5387 -48.5386 -48.5314 -48.5314 -48.5168 -48.5168
   -48.5089 -48.5089 -48.4938 -48.4938 -48.4874 -48.4874 -48.4760 -48.4760
   -48.4725 -48.4725 -48.4683 -48.4683 -48.3663 -48.3658 -48.3647 -48.3642
   -48.3622 -48.3617 -48.3592 -48.3587 -48.3569 -48.3564 -48.3555 -48.3550
    -5.6220  -5.6212  -5.1843  -5.1836  -4.4520  -4.4513  -3.9092  -3.9086
    -3.8505  -3.8502  -3.7951  -3.7947  -3.7791  -3.7786  -3.6473  -3.6469
    -3.6353  -3.6351  -3.3137  -3.3134  -3.2702  -3.2699  -3.2610  -3.2604
    -3.1556  -3.1552  -3.1256  -3.1254  -3.0569  -3.0568  -3.0341  -3.0340
    -2.9942  -2.9936  -2.9134  -2.9132  -2.8737  -2.8734  -2.8708  -2.8702
    -2.8324  -2.8322  -2.8297  -2.8293  -2.7805  -2.7801  -2.7468  -2.7464
    -2.6277  -2.6275  -2.6106  -2.6103  -2.5601  -2.5600  -2.5296  -2.5294
    -2.5287  -2.5282  -2.4991  -2.4990  -2.4813  -2.4812  -2.4052  -2.4051
    -2.4004  -2.4003  -2.3288  -2.3283  -2.2753  -2.2750  -2.2670  -2.2669
    -2.2490  -2.2486  -2.2474  -2.2472  -2.2102  -2.2098  -2.2090  -2.2086
    -2.1374  -2.1373  -2.0511  -2.0509  -1.9959  -1.9956  -1.9601  -1.9596
    -1.8567  -1.8566  -1.8522  -1.8521  -1.8159  -1.8156  -1.7891  -1.7887
    -1.7375  -1.7374  -1.6116  -1.6112  -1.5534  -1.5534  -1.4506  -1.4506
    -1.4494  -1.4493  -1.4046  -1.4043  -1.3776  -1.3775  -1.3582  -1.3582
    -1.3578  -1.3575  -1.3417  -1.3415  -1.3171  -1.3167  -1.2936  -1.2934
    -1.2608  -1.2608  -1.2607  -1.2606  -1.2324  -1.2322  -1.2003  -1.2003
    -1.1933  -1.1932  -1.1373  -1.1370  -1.1279  -1.1277  -1.0548  -1.0547
    -1.0471  -1.0470  -1.0240  -1.0238  -1.0168  -1.0166  -0.9990  -0.9987
    -0.9317  -0.9316  -0.9283  -0.9282  -0.8794  -0.8793  -0.7339  -0.7338
    -0.7302  -0.7302  -0.7246  -0.7245  -0.6927  -0.6926  -0.6905  -0.6904
    -0.6640  -0.6639  -0.6400  -0.6399  -0.6264  -0.6263  -0.5659  -0.5657
    -0.5380  -0.5377  -0.5225  -0.5222  -0.5140  -0.5139  -0.4830  -0.4830
    -0.4697  -0.4696  -0.4636  -0.4633  -0.4520  -0.4519  -0.4090  -0.4089
    -0.3887  -0.3887  -0.3845  -0.3842  -0.3415  -0.3412  -0.3182  -0.3179
    -0.3071  -0.3070  -0.2775  -0.2772  -0.2739  -0.2737  -0.2569  -0.2565
    -0.2458  -0.2457  -0.2274  -0.2271  -0.1929  -0.1925  -0.1621  -0.1619
    -0.1508  -0.1508  -0.1389  -0.1388  -0.1383  -0.1381  -0.1304  -0.1303
    -0.1013  -0.1012   0.0015   0.0016   0.0260   0.0262   0.0636   0.0639
     0.0666   0.0668   0.0861   0.0863   0.1178   0.1181   0.1443   0.1447
     0.1712   0.1714   0.2769   0.2772   0.3027   0.3027   0.3500   0.3500
     0.3541   0.3542   0.3689   0.3692   0.3837   0.3840   0.4017   0.4019
     0.4945   0.4948   0.5221   0.5223   0.5878   0.5880   1.2131   1.2135
     1.3158   1.3162   1.5938   1.5942   1.6639   1.6640   1.7668   1.7673
     2.3928   2.3929   2.4629   2.4634   3.1223   3.1226   3.3016   3.3019
     3.6897   3.6898   3.7138   3.7142   3.7605   3.7609   3.8008   3.8010
     3.8804   3.8809   4.0765   4.0768   4.2638   4.2640   4.8055   4.8055
     4.9118   4.9120   5.3598   5.3599   5.6185   5.6187   5.6748   5.6749
     5.7740   5.7741   5.8641   5.8643   5.9104   5.9105   6.0152   6.0154
     6.0459   6.0459   6.0606   6.0612   6.0699   6.0700   6.3120   6.3121
     6.3515   6.3516   6.3853   6.3853   6.8564   6.8565   7.1393   7.1394
     7.1888   7.1889   7.2576   7.2577   7.4122   7.4122   7.4366   7.4366
     7.6437   7.6439   7.6459   7.6460   8.0086   8.0089   8.1527   8.1534

          k =-0.5000 0.0000 0.0000 (141820 PWs)   bands (ev):

  -111.0746-111.0743-111.0741-111.0737-111.0736-111.0736-111.0736-111.0736
  -111.0735-111.0731-111.0729-111.0727-110.6862-110.6860-110.6858-110.6855
  -110.6854-110.6854-110.6854-110.6854-110.6853-110.6850-110.6848-110.6846
   -68.4758 -68.4758 -68.4754 -68.4753 -68.4742 -68.4740 -68.4736 -68.4735
   -68.4735 -68.4734 -68.4720 -68.4719 -68.4709 -68.4707 -68.4706 -68.4706
   -68.4704 -68.4700 -68.4699 -68.4699 -68.4699 -68.4699 -68.4698 -68.4694
   -68.4691 -68.4691 -68.4691 -68.4691 -68.4689 -68.4689 -68.4686 -68.4684
   -68.4673 -68.4671 -68.4667 -68.4667 -68.1317 -68.1317 -68.1310 -68.1309
   -68.1304 -68.1303 -68.1295 -68.1295 -68.1294 -68.1294 -68.1276 -68.1276
   -68.1270 -68.1270 -68.1251 -68.1251 -68.1250 -68.1250 -68.1243 -68.1241
   -68.1237 -68.1235 -68.1228 -68.1228 -68.0397 -68.0395 -68.0393 -68.0389
   -68.0389 -68.0388 -68.0388 -68.0388 -68.0387 -68.0384 -68.0381 -68.0379
   -49.0314 -49.0314 -49.0184 -49.0182 -49.0161 -49.0159 -49.0070 -49.0070
   -49.0069 -49.0069 -48.9833 -48.9833 -48.9818 -48.9818 -48.9781 -48.9779
   -48.9713 -48.9709 -48.9708 -48.9708 -48.9707 -48.9707 -48.9703 -48.9700
   -48.9641 -48.9639 -48.9585 -48.9585 -48.9584 -48.9583 -48.9483 -48.9482
   -48.9460 -48.9458 -48.9345 -48.9345 -48.5616 -48.5616 -48.5483 -48.5481
   -48.5468 -48.5467 -48.5372 -48.5372 -48.5371 -48.5371 -48.5140 -48.5140
   -48.5117 -48.5117 -48.4888 -48.4888 -48.4887 -48.4887 -48.4781 -48.4780
   -48.4767 -48.4765 -48.4648 -48.4648 -48.3676 -48.3675 -48.3609 -48.3606
   -48.3606 -48.3605 -48.3605 -48.3605 -48.3602 -48.3599 -48.3540 -48.3538
    -5.9858  -5.9856  -4.3204  -4.3204  -4.1991  -4.1990  -4.1989  -4.1987
    -4.1382  -4.1380  -4.0272  -4.0272  -3.9192  -3.9190  -3.5805  -3.5805
    -3.4118  -3.4116  -3.4001  -3.4000  -3.4000  -3.3999  -3.2066  -3.2066
    -3.1470  -3.1468  -3.0255  -3.0254  -2.9173  -2.9172  -2.9161  -2.9161
    -2.8916  -2.8916  -2.8711  -2.8709  -2.8121  -2.8121  -2.8121  -2.8120
    -2.7454  -2.7452  -2.7317  -2.7316  -2.7041  -2.7041  -2.6608  -2.6606
    -2.6579  -2.6578  -2.6578  -2.6578  -2.6158  -2.6158  -2.6157  -2.6157
    -2.6094  -2.6094  -2.5425  -2.5424  -2.4076  -2.4076  -2.3887  -2.3887
    -2.3725  -2.3725  -2.3725  -2.3724  -2.3408  -2.3407  -2.3098  -2.3097
    -2.2857  -2.2856  -2.2707  -2.2707  -2.2568  -2.2567  -2.2567  -2.2566
    -2.1606  -2.1606  -2.1161  -2.1161  -2.0234  -2.0234  -2.0233  -2.0232
    -2.0049  -2.0049  -1.8368  -1.8366  -1.7756  -1.7756  -1.7571  -1.7569
    -1.7027  -1.7027  -1.6718  -1.6717  -1.6594  -1.6594  -1.6354  -1.6354
    -1.6354  -1.6354  -1.5812  -1.5812  -1.5017  -1.5016  -1.4962  -1.4961
    -1.4814  -1.4814  -1.4294  -1.4294  -1.4293  -1.4293  -1.3498  -1.3498
    -1.3011  -1.3011  -1.3010  -1.3010  -1.2819  -1.2818  -1.2525  -1.2525
    -1.1761  -1.1761  -1.0842  -1.0841  -1.0343  -1.0343  -0.9768  -0.9768
    -0.9767  -0.9767  -0.9490  -0.9490  -0.8740  -0.8740  -0.8740  -0.8740
    -0.8587  -0.8587  -0.8534  -0.8534  -0.7498  -0.7498  -0.7498  -0.7497
    -0.7125  -0.7125  -0.7095  -0.7094  -0.6291  -0.6291  -0.6290  -0.6289
    -0.6289  -0.6287  -0.5612  -0.5612  -0.5282  -0.5282  -0.5282  -0.5282
    -0.5227  -0.5227  -0.5215  -0.5213  -0.5206  -0.5205  -0.5061  -0.5060
    -0.5031  -0.5031  -0.4451  -0.4451  -0.4380  -0.4379  -0.3947  -0.3947
    -0.3711  -0.3710  -0.3561  -0.3560  -0.3560  -0.3560  -0.3289  -0.3288
    -0.3222  -0.3222  -0.3142  -0.3142  -0.3141  -0.3141  -0.2968  -0.2968
    -0.1785  -0.1785  -0.1784  -0.1784  -0.1687  -0.1687  -0.1608  -0.1608
    -0.1057  -0.1057  -0.0905  -0.0905  -0.0803  -0.0802  -0.0253  -0.0253
     0.0333   0.0334   0.0334   0.0334   0.1048   0.1048   0.1139   0.1141
     0.1433   0.1435   0.1702   0.1702   0.1703   0.1703   0.1916   0.1916
     0.2320   0.2321   0.2713   0.2713   0.3097   0.3097   0.3098   0.3098
     0.3182   0.3182   0.3861   0.3862   0.4439   0.4439   0.4591   0.4591
     0.4916   0.4917   0.5864   0.5864   0.8823   0.8824   0.9316   0.9317
     0.9318   0.9318   0.9375   0.9376   1.6537   1.6537   1.8640   1.8641
     1.8798   1.8798   1.9587   1.9587   3.0492   3.0492   3.0852   3.0853
     3.0853   3.0854   3.3444   3.3445   3.6834   3.6835   4.2381   4.2381
     4.2580   4.2581   4.7368   4.7368   4.7369   4.7370   5.0040   5.0040
     5.1331   5.1331   5.3640   5.3640   5.3681   5.3681   5.3681   5.3682
     5.5045   5.5046   5.5568   5.5568   6.4126   6.4128   6.4607   6.4608
     6.4881   6.4881   6.4882   6.4882   6.7377   6.7377   6.7666   6.7667
     6.8334   6.8335   6.8878   6.8878   7.1857   7.1857   7.1857   7.1857
     7.3989   7.3990   7.4355   7.4355   7.4978   7.4979   7.6205   7.6205
     7.6205   7.6205   7.7354   7.7354   7.7354   7.7355   7.8619   7.8620

          k =-0.5000 0.3750 0.0000 (141732 PWs)   bands (ev):

  -111.0746-111.0743-111.0741-111.0737-111.0737-111.0736-111.0736-111.0736
  -111.0735-111.0731-111.0729-111.0727-110.6862-110.6860-110.6858-110.6855
  -110.6855-110.6854-110.6854-110.6853-110.6853-110.6850-110.6848-110.6846
   -68.4756 -68.4755 -68.4755 -68.4754 -68.4748 -68.4747 -68.4733 -68.4732
   -68.4731 -68.4731 -68.4722 -68.4721 -68.4709 -68.4707 -68.4704 -68.4704
   -68.4704 -68.4701 -68.4700 -68.4699 -68.4699 -68.4698 -68.4697 -68.4695
   -68.4695 -68.4694 -68.4694 -68.4693 -68.4691 -68.4689 -68.4678 -68.4678
   -68.4671 -68.4671 -68.4670 -68.4670 -68.1314 -68.1314 -68.1313 -68.1312
   -68.1306 -68.1306 -68.1294 -68.1294 -68.1290 -68.1290 -68.1281 -68.1280
   -68.1265 -68.1264 -68.1256 -68.1255 -68.1252 -68.1251 -68.1239 -68.1239
   -68.1233 -68.1232 -68.1231 -68.1231 -68.0396 -68.0395 -68.0393 -68.0390
   -68.0389 -68.0388 -68.0388 -68.0387 -68.0386 -68.0384 -68.0381 -68.0379
   -49.0277 -49.0277 -49.0239 -49.0238 -49.0184 -49.0184 -49.0052 -49.0052
   -49.0012 -49.0012 -48.9917 -48.9917 -48.9776 -48.9774 -48.9736 -48.9736
   -48.9735 -48.9733 -48.9713 -48.9708 -48.9705 -48.9700 -48.9682 -48.9680
   -48.9646 -48.9644 -48.9641 -48.9641 -48.9593 -48.9592 -48.9467 -48.9467
   -48.9405 -48.9404 -48.9381 -48.9381 -48.5578 -48.5578 -48.5541 -48.5541
   -48.5486 -48.5486 -48.5356 -48.5356 -48.5314 -48.5314 -48.5218 -48.5218
   -48.5040 -48.5040 -48.4944 -48.4944 -48.4894 -48.4894 -48.4770 -48.4770
   -48.4708 -48.4707 -48.4684 -48.4684 -48.3671 -48.3669 -48.3632 -48.3631
   -48.3609 -48.3605 -48.3604 -48.3599 -48.3580 -48.3579 -48.3544 -48.3543
    -5.8487  -5.8485  -4.8557  -4.8555  -4.2480  -4.2480  -4.0615  -4.0613
    -4.0258  -4.0258  -3.8481  -3.8480  -3.7569  -3.7567  -3.6196  -3.6195
    -3.5695  -3.5695  -3.3664  -3.3662  -3.3341  -3.3341  -3.2428  -3.2427
    -3.1170  -3.1170  -3.0834  -3.0832  -3.0035  -3.0035  -2.9806  -2.9806
    -2.9133  -2.9133  -2.8987  -2.8985  -2.8910  -2.8910  -2.8241  -2.8240
    -2.8156  -2.8155  -2.7737  -2.7737  -2.7327  -2.7327  -2.6957  -2.6956
    -2.6873  -2.6872  -2.6788  -2.6788  -2.5909  -2.5909  -2.5656  -2.5656
    -2.5120  -2.5120  -2.4398  -2.4398  -2.4377  -2.4377  -2.3988  -2.3987
    -2.3962  -2.3962  -2.3281  -2.3280  -2.3072  -2.3071  -2.2940  -2.2940
    -2.2694  -2.2694  -2.2631  -2.2631  -2.2357  -2.2357  -2.1967  -2.1967
    -2.1837  -2.1836  -2.1465  -2.1464  -2.0241  -2.0241  -1.9428  -1.9428
    -1.8501  -1.8500  -1.7896  -1.7895  -1.7763  -1.7763  -1.7542  -1.7542
    -1.7458  -1.7457  -1.6927  -1.6927  -1.6555  -1.6555  -1.6044  -1.6043
    -1.5587  -1.5587  -1.5429  -1.5428  -1.4985  -1.4985  -1.4560  -1.4560
    -1.4297  -1.4297  -1.3979  -1.3979  -1.3501  -1.3500  -1.3277  -1.3277
    -1.2980  -1.2979  -1.2830  -1.2829  -1.2421  -1.2421  -1.2398  -1.2397
    -1.1959  -1.1959  -1.0776  -1.0776  -1.0726  -1.0725  -0.9967  -0.9967
    -0.9875  -0.9874  -0.9823  -0.9823  -0.9108  -0.9108  -0.8990  -0.8989
    -0.8569  -0.8569  -0.8496  -0.8496  -0.7943  -0.7942  -0.7479  -0.7479
    -0.7277  -0.7277  -0.7101  -0.7101  -0.7059  -0.7059  -0.6944  -0.6944
    -0.6407  -0.6406  -0.6371  -0.6371  -0.5681  -0.5680  -0.5672  -0.5672
    -0.5614  -0.5613  -0.5235  -0.5235  -0.5034  -0.5033  -0.4998  -0.4998
    -0.4728  -0.4728  -0.4509  -0.4508  -0.4288  -0.4288  -0.3692  -0.3692
    -0.3673  -0.3672  -0.3645  -0.3645  -0.3559  -0.3558  -0.3136  -0.3135
    -0.3075  -0.3074  -0.2927  -0.2927  -0.2918  -0.2916  -0.2812  -0.2812
    -0.2426  -0.2425  -0.2111  -0.2111  -0.1649  -0.1649  -0.1627  -0.1627
    -0.0988  -0.0988  -0.0790  -0.0790  -0.0135  -0.0135  -0.0099  -0.0099
    -0.0070  -0.0070   0.0231   0.0231   0.0526   0.0526   0.0741   0.0742
     0.0806   0.0807   0.0995   0.0996   0.1085   0.1086   0.1388   0.1388
     0.2662   0.2662   0.2748   0.2749   0.2848   0.2848   0.2970   0.2970
     0.3785   0.3786   0.3977   0.3977   0.4218   0.4218   0.4321   0.4322
     0.4411   0.4412   0.4704   0.4704   0.5894   0.5894   0.9108   0.9108
     1.0241   1.0242   1.1711   1.1711   2.0490   2.0491   2.1038   2.1039
     2.1778   2.1779   2.4172   2.4172   2.7455   2.7455   2.9178   2.9179
     3.0717   3.0717   3.4683   3.4684   3.8389   3.8390   4.2818   4.2818
     4.3033   4.3034   4.4328   4.4329   4.4823   4.4824   5.1243   5.1244
     5.1357   5.1358   5.2433   5.2433   5.4095   5.4095   5.4672   5.4672
     5.5232   5.5232   5.6380   5.6380   5.6883   5.6883   5.8280   5.8280
     6.1814   6.1814   6.5352   6.5353   6.5919   6.5920   6.6555   6.6555
     6.7366   6.7367   6.8667   6.8667   6.9041   6.9042   6.9648   6.9648
     7.1980   7.1980   7.5403   7.5403   7.5603   7.5604   7.5643   7.5644
     7.6866   7.6866   7.7839   7.7839   8.0040   8.0041   8.1422   8.1422

          k =-0.5000-0.7500 0.0000 (141740 PWs)   bands (ev):

  -111.0745-111.0743-111.0741-111.0738-111.0737-111.0736-111.0736-111.0735
  -111.0735-111.0731-111.0729-111.0727-110.6862-110.6860-110.6858-110.6856
  -110.6855-110.6854-110.6854-110.6853-110.6852-110.6850-110.6848-110.6846
   -68.4756 -68.4755 -68.4753 -68.4753 -68.4749 -68.4747 -68.4743 -68.4741
   -68.4721 -68.4720 -68.4718 -68.4717 -68.4709 -68.4708 -68.4708 -68.4707
   -68.4706 -68.4705 -68.4704 -68.4701 -68.4700 -68.4699 -68.4699 -68.4697
   -68.4696 -68.4694 -68.4691 -68.4689 -68.4684 -68.4683 -68.4678 -68.4677
   -68.4673 -68.4673 -68.4671 -68.4670 -68.1313 -68.1313 -68.1312 -68.1312
   -68.1307 -68.1306 -68.1302 -68.1301 -68.1280 -68.1280 -68.1280 -68.1279
   -68.1266 -68.1266 -68.1265 -68.1265 -68.1244 -68.1243 -68.1239 -68.1238
   -68.1233 -68.1233 -68.1233 -68.1232 -68.0396 -68.0395 -68.0392 -68.0391
   -68.0390 -68.0388 -68.0388 -68.0386 -68.0385 -68.0384 -68.0381 -68.0380
   -49.0243 -49.0243 -49.0243 -49.0242 -49.0174 -49.0174 -49.0167 -49.0167
   -48.9901 -48.9900 -48.9900 -48.9900 -48.9763 -48.9761 -48.9756 -48.9755
   -48.9749 -48.9748 -48.9748 -48.9748 -48.9713 -48.9707 -48.9706 -48.9700
   -48.9664 -48.9662 -48.9657 -48.9655 -48.9488 -48.9488 -48.9482 -48.9482
   -48.9404 -48.9404 -48.9404 -48.9403 -48.5545 -48.5545 -48.5545 -48.5545
   -48.5475 -48.5475 -48.5470 -48.5470 -48.5204 -48.5204 -48.5204 -48.5204
   -48.5051 -48.5050 -48.5050 -48.5050 -48.4791 -48.4791 -48.4786 -48.4786
   -48.4707 -48.4707 -48.4707 -48.4707 -48.3658 -48.3656 -48.3653 -48.3651
   -48.3609 -48.3604 -48.3604 -48.3599 -48.3561 -48.3560 -48.3556 -48.3555
    -5.4533  -5.4531  -5.4525  -5.4523  -4.0970  -4.0968  -4.0965  -4.0962
    -3.8617  -3.8616  -3.8611  -3.8610  -3.7006  -3.7005  -3.7001  -3.7000
    -3.5073  -3.5072  -3.5071  -3.5070  -3.2301  -3.2301  -3.2301  -3.2300
    -3.2230  -3.2229  -3.2225  -3.2223  -2.9887  -2.9887  -2.9887  -2.9887
    -2.9389  -2.9389  -2.9387  -2.9387  -2.8969  -2.8968  -2.8965  -2.8964
    -2.8411  -2.8409  -2.8406  -2.8404  -2.7197  -2.7195  -2.7194  -2.7192
    -2.6506  -2.6506  -2.6504  -2.6504  -2.5859  -2.5858  -2.5855  -2.5854
    -2.5392  -2.5389  -2.5386  -2.5383  -2.3657  -2.3657  -2.3656  -2.3655
    -2.3255  -2.3254  -2.3251  -2.3249  -2.2647  -2.2646  -2.2646  -2.2646
    -2.2569  -2.2566  -2.2566  -2.2563  -2.1459  -2.1459  -2.1458  -2.1458
    -2.0171  -2.0171  -2.0167  -2.0166  -2.0017  -2.0017  -2.0016  -2.0016
    -1.9803  -1.9803  -1.9800  -1.9800  -1.8872  -1.8870  -1.8868  -1.8867
    -1.6171  -1.6171  -1.6170  -1.6170  -1.4837  -1.4836  -1.4834  -1.4833
    -1.4490  -1.4489  -1.4489  -1.4488  -1.4457  -1.4457  -1.4457  -1.4456
    -1.3718  -1.3717  -1.3716  -1.3715  -1.2687  -1.2686  -1.2685  -1.2684
    -1.2669  -1.2669  -1.2667  -1.2667  -1.1759  -1.1759  -1.1758  -1.1758
    -1.1680  -1.1679  -1.1678  -1.1677  -1.0523  -1.0521  -1.0521  -1.0520
    -1.0519  -1.0519  -1.0518  -1.0518  -0.9814  -0.9813  -0.9813  -0.9812
    -0.8646  -0.8646  -0.8644  -0.8644  -0.8119  -0.8119  -0.8118  -0.8117
    -0.8070  -0.8069  -0.8069  -0.8068  -0.6792  -0.6792  -0.6792  -0.6791
    -0.6637  -0.6637  -0.6637  -0.6636  -0.5932  -0.5931  -0.5931  -0.5930
    -0.5581  -0.5581  -0.5579  -0.5579  -0.5290  -0.5290  -0.5289  -0.5288
    -0.4568  -0.4567  -0.4565  -0.4565  -0.4160  -0.4160  -0.4159  -0.4158
    -0.3947  -0.3946  -0.3946  -0.3945  -0.3289  -0.3288  -0.3288  -0.3287
    -0.2786  -0.2785  -0.2783  -0.2781  -0.2565  -0.2565  -0.2563  -0.2563
    -0.2060  -0.2060  -0.2059  -0.2059  -0.1957  -0.1956  -0.1954  -0.1953
    -0.1425  -0.1425  -0.1423  -0.1423  -0.0893  -0.0893  -0.0892  -0.0892
    -0.0831  -0.0831  -0.0830  -0.0830   0.0450   0.0451   0.0454   0.0454
     0.0707   0.0707   0.0709   0.0710   0.1471   0.1471   0.1473   0.1473
     0.2674   0.2674   0.2675   0.2675   0.3254   0.3255   0.3257   0.3258
     0.3284   0.3284   0.3285   0.3285   0.3592   0.3592   0.3592   0.3592
     0.4757   0.4757   0.4760   0.4760   0.9932   0.9932   0.9936   0.9937
     1.3968   1.3969   1.3972   1.3973   1.5308   1.5309   1.5312   1.5313
     3.0030   3.0031   3.0033   3.0034   3.0933   3.0934   3.0938   3.0938
     3.4872   3.4874   3.4875   3.4876   3.6752   3.6754   3.6755   3.6756
     3.8498   3.8499   3.8501   3.8503   4.8838   4.8839   4.8843   4.8844
     5.0322   5.0322   5.0322   5.0323   5.5255   5.5256   5.5256   5.5257
     5.7416   5.7416   5.7417   5.7417   5.8072   5.8072   5.8072   5.8073
     6.0304   6.0305   6.0306   6.0306   6.0801   6.0802   6.0802   6.0802
     7.0293   7.0293   7.0296   7.0296   7.0603   7.0603   7.0604   7.0604
     7.3131   7.3131   7.3132   7.3132   7.3915   7.3916   7.3916   7.3917
     7.4285   7.4285   7.4285   7.4286   7.7997   7.7997   7.7998   7.7998

     the Fermi energy is     0.5744 ev

!    total energy              =  -14458.46425091 Ry
     estimated scf accuracy    <          6.5E-11 Ry
     smearing contrib. (-TS)   =       0.02705657 Ry
     internal energy E=F+TS    =  -14458.49130748 Ry

     The total energy is F=E-TS. E is the sum of the following terms:
     one-electron contribution = -115076.59427325 Ry
     hartree contribution      =   57655.32829606 Ry
     xc contribution           =   -1683.64905800 Ry
     ewald contribution        =   44646.42372771 Ry

     convergence has been achieved in  52 iterations

     negative rho (up, down):  1.881E+00 0.000E+00

     Forces acting on atoms (cartesian axes, Ry/au):

     atom    1 type  1   force =     0.00000000    0.00000000   -0.01212347
     atom    2 type  1   force =     0.00000073   -0.00000173   -0.01212487
     atom    3 type  2   force =     0.00000000    0.00000080    0.02428407
     atom    4 type  2   force =     0.00000356    0.00000000    0.02428327
     atom    5 type  1   force =     0.00000000    0.00000000   -0.01212926
     atom    6 type  1   force =     0.00000073    0.00000173   -0.01212487
     atom    7 type  2   force =     0.00000000   -0.00000080    0.02428407
     atom    8 type  2   force =    -0.00000080    0.00000000    0.02428689
     atom    9 type  1   force =    -0.00000260    0.00000000   -0.01212664
     atom   10 type  1   force =     0.00000000    0.00000414   -0.01212812
     atom   11 type  2   force =    -0.00000034   -0.00000202    0.02428651
     atom   12 type  2   force =     0.00000000    0.00000000    0.02428589
     atom   13 type  1   force =    -0.00000110    0.00000000   -0.01212725
     atom   14 type  1   force =     0.00000000   -0.00000414   -0.01212812
     atom   15 type  2   force =    -0.00000034    0.00000202    0.02428651
     atom   16 type  2   force =     0.00000000    0.00000000    0.02428841
     atom   17 type  1   force =     0.00000260    0.00000000   -0.01212664
     atom   18 type  1   force =    -0.00000073   -0.00000173   -0.01212487
     atom   19 type  2   force =     0.00000034   -0.00000202    0.02428651
     atom   20 type  2   force =    -0.00000356    0.00000000    0.02428327
     atom   21 type  1   force =     0.00000110    0.00000000   -0.01212725
     atom   22 type  1   force =    -0.00000073    0.00000173   -0.01212487
     atom   23 type  2   force =     0.00000034    0.00000202    0.02428651
     atom   24 type  2   force =     0.00000080    0.00000000    0.02428689
     atom   25 type  1   force =     0.00000000    0.00000000   -0.03135600
     atom   26 type  1   force =     0.00000049    0.00000032   -0.03135834
     atom   27 type  2   force =     0.00000000   -0.00000229    0.01920111
     atom   28 type  2   force =     0.00000025    0.00000000    0.01919912
     atom   29 type  1   force =     0.00000000    0.00000000   -0.03136754
     atom   30 type  1   force =     0.00000049   -0.00000032   -0.03135834
     atom   31 type  2   force =     0.00000000    0.00000229    0.01920111
     atom   32 type  2   force =     0.00000095    0.00000000    0.01920336
     atom   33 type  1   force =    -0.00000838    0.00000000   -0.03136410
     atom   34 type  1   force =     0.00000000    0.00000701   -0.03136361
     atom   35 type  2   force =    -0.00000099   -0.00000028    0.01920287
     atom   36 type  2   force =     0.00000000    0.00000000    0.01920648
     atom   37 type  1   force =    -0.00000209    0.00000000   -0.03136417
     atom   38 type  1   force =     0.00000000   -0.00000701   -0.03136361
     atom   39 type  2   force =    -0.00000099    0.00000028    0.01920287
     atom   40 type  2   force =     0.00000000    0.00000000    0.01920294
     atom   41 type  1   force =     0.00000838    0.00000000   -0.03136410
     atom   42 type  1   force =    -0.00000049    0.00000032   -0.03135834
     atom   43 type  2   force =     0.00000099   -0.00000028    0.01920287
     atom   44 type  2   force =    -0.00000025    0.00000000    0.01919912
     atom   45 type  1   force =     0.00000209    0.00000000   -0.03136417
     atom   46 type  1   force =    -0.00000049   -0.00000032   -0.03135834
     atom   47 type  2   force =     0.00000099    0.00000028    0.01920287
     atom   48 type  2   force =    -0.00000095    0.00000000    0.01920336

     Total force =     0.158334     Total SCF correction =     0.000047


     Computing stress (Cartesian axis) and pressure


     negative rho (up, down):  1.881E+00 0.000E+00
          total   stress  (Ry/bohr**3)                   (kbar)     P=       -2.92
  -0.00004268   0.00000000   0.00000000           -6.28        0.00        0.00
   0.00000000  -0.00004460   0.00000000            0.00       -6.56        0.00
   0.00000000   0.00000000   0.00002775            0.00        0.00        4.08


     BFGS Geometry Optimization

     number of scf cycles    =   1
     number of bfgs steps    =   0

     energy   new            =  -14458.4642509084 Ry

     new trust radius        =       0.0313675420 bohr
     new conv_thr            =            1.0E-10 Ry


ATOMIC_POSITIONS (angstrom)
Cu            0.0000000000        0.0000000000        0.5478345188
Cu            2.1121254972        2.1121257458        0.5478554047
Pd            0.0000000000        2.1121173656        1.9520734349
Pd            2.1121219816        0.0000000000        1.9520699966
Cu            0.0000000000        4.2242543590        0.5478928302
Cu            2.1121254972        6.3363846132        0.5478554047
Pd            0.0000000000        6.3363929934        1.9520734349
Pd            2.1121323676        4.2242543590        1.9520688363
Cu            4.2242748644        0.0000000000        0.5478815522
Cu            6.3363823590        2.1121009878        0.5478663196
Pd            4.2242510052        2.1121331911        1.9520706556
Pd            6.3363823590        0.0000000000        1.9520965199
Cu            4.2242562545        4.2242543590        0.5478566914
Cu            6.3363823590        6.3364093712        0.5478663196
Pd            4.2242510052        6.3363771679        1.9520706556
Pd            6.3363823590        4.2242543590        1.9520518337
Cu            8.4484882126        0.0000000000        0.5478815522
Cu           10.5606392208        2.1121257458        0.5478554047
Pd            8.4485120718        2.1121331911        1.9520706556
Pd           10.5606377244        0.0000000000        1.9520699966
Cu            8.4485068225        4.2242543590        0.5478566914
Cu           10.5606392208        6.3363846132        0.5478554047
Pd            8.4485120718        6.3363771679        1.9520706556
Pd           10.5606323504        4.2242543590        1.9520688363
Cu            0.0000000000        0.0000000000        3.5671937098
Cu            2.1121253699        2.1121268281        3.5672140997
Pd            0.0000000000        2.1121157328        4.9789202523
Pd            2.1121202280        0.0000000000        4.9789161818
Cu            0.0000000000        4.2242543590        3.5672489736
Cu            2.1121253699        6.3363835309        3.5672140997
[...]
    -2.4328  -2.4328  -2.3359  -2.3359  -2.3273  -2.3273  -2.2656  -2.2655
    -2.2524  -2.2523  -2.2415  -2.2415  -2.2367  -2.2366  -2.2068  -2.2068
    -2.2033  -2.2033  -2.1457  -2.1456  -2.1130  -2.1130  -2.1091  -2.1091
    -2.0996  -2.0995  -1.9607  -1.9606  -1.8006  -1.8005  -1.7591  -1.7591
    -1.7158  -1.7157  -1.6987  -1.6987  -1.6718  -1.6718  -1.6684  -1.6684
    -1.6596  -1.6595  -1.6237  -1.6236  -1.5348  -1.5348  -1.5234  -1.5233
    -1.5183  -1.5183  -1.4034  -1.4034  -1.3704  -1.3704  -1.3654  -1.3653
    -1.2929  -1.2928  -1.2418  -1.2418  -1.2050  -1.2050  -1.1933  -1.1933
    -1.1364  -1.1363  -1.1362  -1.1362  -1.1058  -1.1058  -1.0532  -1.0531
    -1.0435  -1.0434  -1.0120  -1.0120  -1.0116  -1.0116  -0.9971  -0.9971
    -0.9191  -0.9190  -0.9028  -0.9028  -0.8317  -0.8317  -0.8209  -0.8208
    -0.8110  -0.8110  -0.7295  -0.7295  -0.6761  -0.6761  -0.6699  -0.6699
    -0.6564  -0.6564  -0.6294  -0.6294  -0.6249  -0.6248  -0.5783  -0.5783
    -0.5710  -0.5709  -0.5547  -0.5547  -0.5323  -0.5323  -0.4814  -0.4814
    -0.4794  -0.4793  -0.4705  -0.4705  -0.4576  -0.4576  -0.4568  -0.4567
    -0.3892  -0.3891  -0.3844  -0.3843  -0.3757  -0.3757  -0.3673  -0.3673
    -0.3632  -0.3631  -0.3625  -0.3625  -0.3365  -0.3364  -0.3288  -0.3287
    -0.3009  -0.3009  -0.2926  -0.2925  -0.2919  -0.2918  -0.2575  -0.2575
    -0.2414  -0.2413  -0.1993  -0.1993  -0.1921  -0.1921  -0.1533  -0.1532
    -0.0783  -0.0783  -0.0511  -0.0511  -0.0190  -0.0190  -0.0145  -0.0145
     0.0240   0.0241   0.0395   0.0396   0.0420   0.0420   0.0746   0.0746
     0.0826   0.0827   0.0842   0.0842   0.1248   0.1248   0.1616   0.1617
     0.2494   0.2494   0.3349   0.3349   0.3367   0.3367   0.3380   0.3381
     0.3912   0.3913   0.4397   0.4397   0.4574   0.4574   0.4756   0.4757
     0.4895   0.4895   0.5214   0.5215   0.6072   0.6073   0.9739   0.9739
     1.0546   1.0547   1.2567   1.2567   2.0640   2.0642   2.1152   2.1153
     2.2077   2.2078   2.4344   2.4344   2.7752   2.7752   2.9409   2.9410
     3.0028   3.0028   3.3304   3.3305   3.8540   3.8541   4.2026   4.2026
     4.2333   4.2334   4.3996   4.3997   4.5081   4.5081   5.1155   5.1156
     5.2039   5.2041   5.2107   5.2107   5.3972   5.3973   5.4548   5.4548
     5.5408   5.5408   5.6232   5.6232   5.6633   5.6634   5.8485   5.8485
     6.1672   6.1673   6.5151   6.5152   6.5876   6.5876   6.6469   6.6469
     6.7148   6.7149   6.8733   6.8733   6.8741   6.8741   6.9404   6.9404
     7.1991   7.1991   7.5145   7.5145   7.5197   7.5197   7.5784   7.5785
     7.6853   7.6853   7.7353   7.7353   7.9828   7.9829   8.1304   8.1304

          k =-0.5000-0.7500 0.0000 (141740 PWs)   bands (ev):

  -111.0200-111.0197-111.0195-111.0192-111.0191-111.0190-111.0190-111.0189
  -111.0189-111.0185-111.0183-111.0181-110.6143-110.6141-110.6139-110.6137
  -110.6136-110.6135-110.6135-110.6135-110.6134-110.6132-110.6130-110.6128
   -68.4203 -68.4201 -68.4198 -68.4195 -68.4194 -68.4193 -68.4193 -68.4191
   -68.4190 -68.4188 -68.4185 -68.4183 -68.4183 -68.4183 -68.4182 -68.4182
   -68.4177 -68.4177 -68.4171 -68.4171 -68.4150 -68.4150 -68.4149 -68.4149
   -68.4136 -68.4136 -68.4135 -68.4135 -68.4114 -68.4114 -68.4108 -68.4108
   -68.4103 -68.4103 -68.4103 -68.4102 -68.0537 -68.0537 -68.0536 -68.0536
   -68.0531 -68.0530 -68.0526 -68.0525 -68.0505 -68.0504 -68.0504 -68.0503
   -68.0490 -68.0490 -68.0489 -68.0489 -68.0468 -68.0468 -68.0463 -68.0463
   -68.0458 -68.0458 -68.0457 -68.0456 -67.9810 -67.9808 -67.9806 -67.9804
   -67.9803 -67.9802 -67.9802 -67.9800 -67.9799 -67.9798 -67.9795 -67.9793
   -49.0069 -49.0069 -49.0069 -49.0069 -49.0000 -49.0000 -48.9994 -48.9993
   -48.9727 -48.9727 -48.9727 -48.9727 -48.9637 -48.9635 -48.9631 -48.9629
   -48.9588 -48.9581 -48.9581 -48.9575 -48.9575 -48.9575 -48.9575 -48.9575
   -48.9538 -48.9536 -48.9532 -48.9530 -48.9315 -48.9314 -48.9308 -48.9308
   -48.9231 -48.9231 -48.9230 -48.9230 -48.4443 -48.4443 -48.4443 -48.4443
   -48.4372 -48.4372 -48.4368 -48.4367 -48.4104 -48.4104 -48.4104 -48.4104
   -48.3952 -48.3952 -48.3951 -48.3951 -48.3693 -48.3693 -48.3689 -48.3689
   -48.3611 -48.3611 -48.3611 -48.3611 -48.2706 -48.2705 -48.2702 -48.2700
   -48.2659 -48.2654 -48.2654 -48.2649 -48.2610 -48.2609 -48.2605 -48.2604
    -5.4262  -5.4260  -5.4254  -5.4252  -4.0530  -4.0528  -4.0524  -4.0522
    -3.7757  -3.7756  -3.7752  -3.7751  -3.6840  -3.6839  -3.6835  -3.6833
    -3.4934  -3.4933  -3.4932  -3.4931  -3.2144  -3.2144  -3.2144  -3.2143
    -3.1469  -3.1468  -3.1464  -3.1462  -2.9026  -2.9025  -2.9022  -2.9021
    -2.8707  -2.8707  -2.8705  -2.8705  -2.7944  -2.7942  -2.7938  -2.7937
    -2.7429  -2.7428  -2.7427  -2.7427  -2.6192  -2.6192  -2.6190  -2.6190
    -2.5915  -2.5915  -2.5912  -2.5911  -2.4026  -2.4024  -2.4023  -2.4021
    -2.3945  -2.3943  -2.3943  -2.3941  -2.3196  -2.3195  -2.3194  -2.3194
    -2.2732  -2.2730  -2.2727  -2.2725  -2.1830  -2.1828  -2.1827  -2.1825
    -2.1161  -2.1160  -2.1160  -2.1160  -1.9980  -1.9980  -1.9979  -1.9979
    -1.9065  -1.9065  -1.9062  -1.9061  -1.8624  -1.8624  -1.8623  -1.8623
    -1.8526  -1.8525  -1.8523  -1.8522  -1.7562  -1.7561  -1.7558  -1.7558
    -1.5729  -1.5729  -1.5729  -1.5728  -1.4379  -1.4379  -1.4377  -1.4377
    -1.4056  -1.4055  -1.4053  -1.4053  -1.3150  -1.3149  -1.3149  -1.3148
    -1.1839  -1.1839  -1.1837  -1.1836  -1.1533  -1.1533  -1.1529  -1.1529
    -1.1338  -1.1337  -1.1337  -1.1336  -1.0712  -1.0710  -1.0708  -1.0707
    -1.0639  -1.0639  -1.0638  -1.0638  -1.0025  -1.0024  -1.0023  -1.0023
    -0.9374  -0.9373  -0.9373  -0.9372  -0.8442  -0.8442  -0.8441  -0.8441
    -0.7300  -0.7300  -0.7300  -0.7300  -0.6793  -0.6793  -0.6793  -0.6793
    -0.6435  -0.6434  -0.6433  -0.6433  -0.6127  -0.6126  -0.6126  -0.6125
    -0.5984  -0.5983  -0.5982  -0.5981  -0.5641  -0.5640  -0.5640  -0.5639
    -0.5260  -0.5260  -0.5259  -0.5259  -0.5049  -0.5049  -0.5048  -0.5048
    -0.4146  -0.4146  -0.4145  -0.4145  -0.3959  -0.3958  -0.3956  -0.3956
    -0.3621  -0.3621  -0.3620  -0.3620  -0.2983  -0.2982  -0.2981  -0.2980
    -0.2824  -0.2823  -0.2821  -0.2819  -0.2320  -0.2320  -0.2319  -0.2319
    -0.2025  -0.2025  -0.2024  -0.2024  -0.1701  -0.1700  -0.1699  -0.1698
    -0.1416  -0.1416  -0.1415  -0.1415  -0.1249  -0.1248  -0.1247  -0.1245
    -0.0520  -0.0520  -0.0519  -0.0519   0.0411   0.0411   0.0414   0.0414
     0.1006   0.1006   0.1009   0.1009   0.1379   0.1380   0.1380   0.1382
     0.2687   0.2687   0.2687   0.2688   0.3420   0.3421   0.3423   0.3424
     0.3537   0.3537   0.3537   0.3538   0.4288   0.4288   0.4288   0.4288
     0.5053   0.5054   0.5056   0.5057   1.0580   1.0580   1.0585   1.0585
     1.3976   1.3977   1.3980   1.3981   1.5618   1.5619   1.5621   1.5622
     3.0225   3.0226   3.0229   3.0230   3.0406   3.0406   3.0410   3.0411
     3.5567   3.5568   3.5569   3.5571   3.6903   3.6905   3.6906   3.6907
     3.7386   3.7387   3.7389   3.7390   4.9480   4.9480   4.9485   4.9486
     4.9918   4.9918   4.9918   4.9919   5.5074   5.5075   5.5076   5.5077
     5.6789   5.6790   5.6790   5.6791   5.8321   5.8321   5.8322   5.8322
     6.0185   6.0186   6.0187   6.0188   6.0570   6.0571   6.0572   6.0572
     6.9883   6.9883   6.9886   6.9886   7.0815   7.0815   7.0816   7.0816
     7.2941   7.2941   7.2942   7.2943   7.3670   7.3671   7.3672   7.3672
     7.3986   7.3986   7.3987   7.3987   7.7807   7.7808   7.7809   7.7809

     the Fermi energy is     0.6159 ev

!    total energy              =  -14458.51604151 Ry
     estimated scf accuracy    <          1.7E-12 Ry
     smearing contrib. (-TS)   =       0.02365964 Ry
     internal energy E=F+TS    =  -14458.53970115 Ry

     The total energy is F=E-TS. E is the sum of the following terms:
     one-electron contribution = -114676.94743366 Ry
     hartree contribution      =   57457.31295865 Ry
     xc contribution           =   -1683.33818838 Ry
     ewald contribution        =   44444.43296223 Ry

     convergence has been achieved in  21 iterations

     negative rho (up, down):  1.880E+00 0.000E+00

     Forces acting on atoms (cartesian axes, Ry/au):

     atom    1 type  1   force =     0.00000000    0.00000000   -0.00003122
     atom    2 type  1   force =     0.00000018   -0.00000008   -0.00003199
     atom    3 type  2   force =     0.00000000    0.00000007    0.00005489
     atom    4 type  2   force =     0.00000078    0.00000000    0.00005501
     atom    5 type  1   force =     0.00000000    0.00000000   -0.00003140
     atom    6 type  1   force =     0.00000018    0.00000008   -0.00003199
     atom    7 type  2   force =     0.00000000   -0.00000007    0.00005489
     atom    8 type  2   force =     0.00000070    0.00000000    0.00005483
     atom    9 type  1   force =    -0.00000032    0.00000000   -0.00003078
     atom   10 type  1   force =     0.00000000   -0.00000006   -0.00003151
     atom   11 type  2   force =     0.00000056   -0.00000007    0.00005462
     atom   12 type  2   force =     0.00000000    0.00000000    0.00005411
     atom   13 type  1   force =    -0.00000011    0.00000000   -0.00003105
     atom   14 type  1   force =     0.00000000    0.00000006   -0.00003151
     atom   15 type  2   force =     0.00000056    0.00000007    0.00005462
     atom   16 type  2   force =     0.00000000    0.00000000    0.00005460
     atom   17 type  1   force =     0.00000032    0.00000000   -0.00003078
     atom   18 type  1   force =    -0.00000018   -0.00000008   -0.00003199
     atom   19 type  2   force =    -0.00000056   -0.00000007    0.00005462
     atom   20 type  2   force =    -0.00000078    0.00000000    0.00005501
     atom   21 type  1   force =     0.00000011    0.00000000   -0.00003105
     atom   22 type  1   force =    -0.00000018    0.00000008   -0.00003199
     atom   23 type  2   force =    -0.00000056    0.00000007    0.00005462
     atom   24 type  2   force =    -0.00000070    0.00000000    0.00005483
     atom   25 type  1   force =     0.00000000    0.00000000    0.00001867
     atom   26 type  1   force =    -0.00000021   -0.00000023    0.00001961
     atom   27 type  2   force =     0.00000000    0.00000013   -0.00004305
     atom   28 type  2   force =     0.00000020    0.00000000   -0.00004260
     atom   29 type  1   force =     0.00000000    0.00000000    0.00001881
     atom   30 type  1   force =    -0.00000021    0.00000023    0.00001961
     atom   31 type  2   force =     0.00000000   -0.00000013   -0.00004305
     atom   32 type  2   force =     0.00000037    0.00000000   -0.00004246
     atom   33 type  1   force =    -0.00000219    0.00000000    0.00001838
     atom   34 type  1   force =     0.00000000    0.00000021    0.00001753
     atom   35 type  2   force =     0.00000025   -0.00000003   -0.00004160
     atom   36 type  2   force =     0.00000000    0.00000000   -0.00004179
     atom   37 type  1   force =    -0.00000172    0.00000000    0.00001909
     atom   38 type  1   force =     0.00000000   -0.00000021    0.00001753
     atom   39 type  2   force =     0.00000025    0.00000003   -0.00004160
     atom   40 type  2   force =     0.00000000    0.00000000   -0.00004090
     atom   41 type  1   force =     0.00000219    0.00000000    0.00001838
     atom   42 type  1   force =     0.00000021   -0.00000023    0.00001961
     atom   43 type  2   force =    -0.00000025   -0.00000003   -0.00004160
     atom   44 type  2   force =    -0.00000020    0.00000000   -0.00004260
     atom   45 type  1   force =     0.00000172    0.00000000    0.00001909
     atom   46 type  1   force =     0.00000021    0.00000023    0.00001961
     atom   47 type  2   force =    -0.00000025    0.00000003   -0.00004160
     atom   48 type  2   force =    -0.00000037    0.00000000   -0.00004246

     Total force =     0.000271     Total SCF correction =     0.000007


     Computing stress (Cartesian axis) and pressure


     negative rho (up, down):  1.880E+00 0.000E+00
          total   stress  (Ry/bohr**3)                   (kbar)     P=       -8.81
  -0.00008820   0.00000000   0.00000000          -12.98        0.00        0.00
   0.00000000  -0.00008965   0.00000000            0.00      -13.19        0.00
   0.00000000   0.00000000  -0.00000175            0.00        0.00       -0.26


     number of scf cycles    =  13
     number of bfgs steps    =  12

     energy   old            =  -14458.5160383411 Ry
     energy   new            =  -14458.5160415120 Ry

     CASE: energy  _new < energy  _old

     new trust radius        =       0.0002241053 bohr
     new conv_thr            =            3.2E-11 Ry


ATOMIC_POSITIONS (angstrom)
Cu            0.0000000000        0.0000000000        0.5243854110
Cu            2.1121286143        2.1121268388        0.5243827978
Pd            0.0000000000        2.1121256984        1.9870807829
Pd            2.1121264261        0.0000000000        1.9870790062
Cu            0.0000000000        4.2242543590        0.5243822180
Cu            2.1121286143        6.3363835202        0.5243827978
Pd            0.0000000000        6.3363846606        1.9870807829
Pd            2.1121230182        4.2242543590        1.9870850769
Cu            4.2242639943        0.0000000000        0.5243817855
Cu            6.3363823590        2.1121132854        0.5243865592
Pd            4.2242514384        2.1121242044        1.9870823245
Pd            6.3363823590        0.0000000000        1.9870931165
Cu            4.2242488824        4.2242543590        0.5243817595
Cu            6.3363823590        6.3363970736        0.5243865592
Pd            4.2242514384        6.3363861546        1.9870823245
Pd            6.3363823590        4.2242543590        1.9870711140
Cu            8.4484990827        0.0000000000        0.5243817855
Cu           10.5606361037        2.1121268388        0.5243827978
Pd            8.4485116386        2.1121242044        1.9870823245
Pd           10.5606332799        0.0000000000        1.9870790062
Cu            8.4485141946        4.2242543590        0.5243817595
Cu           10.5606361037        6.3363835202        0.5243827978
Pd            8.4485116386        6.3363861546        1.9870823245
Pd           10.5606416998        4.2242543590        1.9870850769
Cu            0.0000000000        0.0000000000        3.5168345834
Cu            2.1121245065        2.1121236741        3.5168395355
Pd            0.0000000000        2.1121228867        5.0177769098
Pd            2.1121215117        0.0000000000        5.0177721753
Cu            0.0000000000        4.2242543590        3.5168426997
Cu            2.1121245065        6.3363866849        3.5168395355
Pd            0.0000000000        6.3363874723        5.0177769098
Pd            2.1121290976        4.2242543590        5.0177699910
Cu            4.2242556044        0.0000000000        3.5168431711
Cu            6.3363823590        2.1121257733        3.5168371724
Pd            4.2242504093        2.1121291741        5.0177659631
Pd            6.3363823590        0.0000000000        5.0177699844
Cu            4.2242589683        4.2242543590        3.5168320982
Cu            6.3363823590        6.3363845857        3.5168371724
Pd            4.2242504093        6.3363811849        5.0177659631
Pd            6.3363823590        4.2242543590        5.0177639374
Cu            8.4485074726        0.0000000000        3.5168431711
Cu           10.5606402115        2.1121236741        3.5168395355
Pd            8.4485126677        2.1121291741        5.0177659631
Pd           10.5606381943        0.0000000000        5.0177721753
Cu            8.4485041087        4.2242543590        3.5168320982
Cu           10.5606402115        6.3363866849        3.5168395355
Pd            8.4485126677        6.3363811849        5.0177659631
Pd           10.5606356204        4.2242543590        5.0177699910



     Writing output data file /users/aafshar4/scratch/CuPd_rlx_1st_BBEF-vdW.save/
     NEW-OLD atomic charge density approx. for the potential

     negative rho (up, down):  1.880E+00 0.000E+00

     total cpu time spent up to now is    39667.6 secs

     Self-consistent Calculation

     iteration #  1     ecut=    60.00 Ry     beta= 0.30
     Davidson diagonalization with overlap
     ethr =  1.00E-06,  avg # of iterations =  2.0

     Threshold (ethr) on eigenvalues was too large:
     Diagonalizing with lowered threshold

     Davidson diagonalization with overlap
     ethr =  5.22E-10,  avg # of iterations =  4.9

     negative rho (up, down):  1.880E+00 0.000E+00

     total cpu time spent up to now is    39953.9 secs

     total energy              =  -14458.51603932 Ry
     estimated scf accuracy    <       0.00000542 Ry

     iteration #  2     ecut=    60.00 Ry     beta= 0.30
     Davidson diagonalization with overlap

     Maximum CPU time exceeded

     max_seconds     =   40000.00
     elapsed seconds =   40001.22
     Calculation stopped in k-point loop, point #     4
     Calculation stopped in scf loop at iteration #     1

     Writing output data file /users/aafshar4/scratch/CuPd_rlx_1st_BBEF-vdW.save/
 
     init_run     :     49.42s CPU     50.56s WALL (       1 calls)
     electrons    :  35577.00s CPU  36167.08s WALL (      14 calls)
     update_pot   :     57.78s CPU     58.21s WALL (      13 calls)
     forces       :    302.87s CPU    310.02s WALL (      13 calls)
     stress       :   3372.09s CPU   3390.05s WALL (      13 calls)

     Called by init_run:
     wfcinit      :     41.73s CPU     42.33s WALL (       1 calls)
     potinit      :      1.74s CPU      1.80s WALL (       1 calls)
     hinit0       :      2.50s CPU      2.54s WALL (       1 calls)

     Called by electrons:
     c_bands      :  30440.22s CPU  30753.04s WALL (     320 calls)
     sum_band     :   4511.46s CPU   4654.72s WALL (     319 calls)
     v_of_rho     :    141.07s CPU    149.23s WALL (     324 calls)
     newd         :    457.45s CPU    587.16s WALL (     324 calls)
     mix_rho      :     34.35s CPU     35.46s WALL (     319 calls)

     Called by c_bands:
     init_us_2    :    110.00s CPU    110.16s WALL (    5989 calls)
     cegterg      :  29226.20s CPU  29537.39s WALL (    2875 calls)

     Called by *egterg:
     cdiaghg      :   1021.10s CPU   1038.55s WALL (    9494 calls)
     h_psi        :  14689.82s CPU  14816.74s WALL (    9701 calls)
     s_psi        :   2798.30s CPU   2798.48s WALL (    9701 calls)
     g_psi        :     36.08s CPU     36.12s WALL (    6817 calls)

     Called by h_psi:
     h_psi:calbec :   2682.85s CPU   2683.51s WALL (    9701 calls)
     vloc_psi     :   9151.18s CPU   9197.98s WALL (    9701 calls)
     add_vuspsi   :   2797.88s CPU   2799.00s WALL (    9701 calls)

     General routines
     calbec       :   4420.88s CPU   4421.81s WALL (   13157 calls)
     fft          :    144.19s CPU    150.00s WALL (    4533 calls)
     ffts         :      5.68s CPU      5.70s WALL (     643 calls)
     fftw         :  10194.72s CPU  10245.93s WALL ( 7785276 calls)
     interpolate  :     11.68s CPU     11.94s WALL (     324 calls)
     davcio       :      0.00s CPU      0.26s WALL (      11 calls)
 
     Parallel routines
     fft_scatt_xy :   1774.50s CPU   1782.75s WALL ( 7790452 calls)
     fft_scatt_yz :   4542.89s CPU   4571.90s WALL ( 7790452 calls)
 
     PWSCF        :     10h56m CPU     11h 6m WALL

 
   This run was terminated on:   7:25: 1  23Apr2021            

=------------------------------------------------------------------------------=
   JOB DONE.
=------------------------------------------------------------------------------=
[1619177101.251556] [node1836:193417:0]          mpool.c:43   UCX  WARN  object 0x45757c0 was not returned to mpool ucp_requests
[1619177101.249627] [node1857:271456:0]          mpool.c:43   UCX  WARN  object 0x47a96c0 was not returned to mpool ucp_requests
[1619177101.252050] [node1857:271457:0]          mpool.c:43   UCX  WARN  object 0x3256480 was not returned to mpool ucp_requests
