
     Program PWSCF v.6.6 starts on 23Apr2021 at  9:48: 1 

     This program is part of the open-source Quantum ESPRESSO suite
     for quantum simulation of materials; please cite
         "P. Giannozzi et al., J. Phys.:Condens. Matter 21 395502 (2009);
         "P. Giannozzi et al., J. Phys.:Condens. Matter 29 465901 (2017);
          URL http://www.quantum-espresso.org", 
     in publications or presentations arising from this work. More details at
     http://www.quantum-espresso.org/quote

     Parallel version (MPI), running on    16 processors

     MPI processes distributed on     2 nodes
     R & G space division:  proc/nbgrp/npool/nimage =      16
     Fft bands division:     nmany     =       1
     Waiting for input...
     Reading input from standard input
Warning: card  &CELL ignored
Warning: card     CELL_DYNAMICS = 'BFGS', ignored
Warning: card     PRESS=0.0, ignored
Warning: card     CELL_DOFREE = '2DXY', ignored
Warning: card / ignored

     Current dimensions of program PWSCF are:
     Max number of different atomic species (ntypx) = 10
     Max number of k-points (npk) =  40000
     Max angular momentum in pseudopotentials (lmaxx) =  3

     IMPORTANT: XC functional enforced from input :
     Exchange-correlation= PBE
                           (   1   4   3   4   0   0   0)
     Any further DFT definition will be discarded
     Please, verify this is what you really want


     Subspace diagonalization in iterative solution of the eigenvalue problem:
     one sub-group per band group will be used
     scalapack distributed-memory algorithm (size of sub-group:  4*  4 procs)

     Found symmetry operation: I + (  0.1667  0.2500  0.0000)
     This is a supercell, fractional translations are disabled
     Message from routine setup:
     using ibrav=0 with symmetry is DISCOURAGED, use correct ibrav instead
 
     Parallelization info
     --------------------
     sticks:   dense  smooth     PW     G-vecs:    dense   smooth      PW
     Min        1235     456    121               315921    70878    9707
     Max        1236     457    123               315927    70883    9709
     Sum       19763    7301   1949              5054785  1134089  155333
 


     bravais-lattice index     =            0
     lattice parameter (alat)  =      23.9481  a.u.
     unit-cell volume          =   18062.9546 (a.u.)^3
     number of atoms/cell      =           48
     number of atomic types    =            2
     number of electrons       =       840.00
     number of Kohn-Sham states=          504
     kinetic-energy cutoff     =      60.0000  Ry
     charge density cutoff     =     650.0000  Ry
     convergence threshold     =      1.0E-10
     mixing beta               =       0.3000
     number of iterations used =            8  plain     mixing
     Exchange-correlation= PBE
                           (   1   4   3   4   0   0   0)
     nstep                     =           50


     celldm(1)=  23.948060  celldm(2)=   0.000000  celldm(3)=   0.000000
     celldm(4)=   0.000000  celldm(5)=   0.000000  celldm(6)=   0.000000

     crystal axes: (cart. coord. in units of alat)
               a(1) = (   1.000000   0.000000   0.000000 )  
               a(2) = (   0.000000   0.666667   0.000000 )  
               a(3) = (   0.000000   0.000000   1.972734 )  

     reciprocal axes: (cart. coord. in units 2 pi/alat)
               b(1) = (  1.000000  0.000000  0.000000 )  
               b(2) = (  0.000000  1.499998  0.000000 )  
               b(3) = (  0.000000  0.000000  0.506911 )  


     PseudoPot. # 1 for Cu read from file:
     ./pseudo-gbrv-pbe/cu_pbe_v1.2.uspp.F.UPF
     MD5 check sum: 6e991ff952a84172a2a52a1c1e996048
     Pseudo is Ultrasoft + core correction, Zval = 19.0
     Generated by new atomic code, or converted to UPF format
     Using radial grid of  867 points,  6 beta functions with: 
                l(1) =   0
                l(2) =   0
                l(3) =   1
                l(4) =   1
                l(5) =   2
                l(6) =   2
     Q(r) pseudized with  8 coefficients,  rinner =    1.150   1.150   1.150
                                                       1.150   1.150

     PseudoPot. # 2 for Pd read from file:
     ./pseudo-gbrv-pbe/pd_pbe_v1.4.uspp.F.UPF
     MD5 check sum: 2d733d2bc2cbfd217af676df1668a4bc
     Pseudo is Ultrasoft + core correction, Zval = 16.0
     Generated by new atomic code, or converted to UPF format
     Using radial grid of  887 points,  6 beta functions with: 
                l(1) =   0
                l(2) =   0
                l(3) =   1
                l(4) =   1
                l(5) =   2
                l(6) =   2
     Q(r) pseudized with  8 coefficients,  rinner =    1.130   1.130   1.130
                                                       1.130   1.130

     atomic species   valence    mass     pseudopotential
        Cu            19.00    63.54600     Cu( 1.00)
        Pd            16.00   106.42000     Pd( 1.00)

      4 Sym. Ops. (no inversion) found



   Cartesian axes

     site n.     atom                  positions (alat units)
         1           Cu  tau(   1) = (   0.0000000   0.0000000   0.0437355  )
         2           Cu  tau(   2) = (   0.1666664   0.1666666   0.0437372  )
         3           Pd  tau(   3) = (   0.0000000   0.1666658   0.1530228  )
         4           Pd  tau(   4) = (   0.1666660   0.0000000   0.1530226  )
         5           Cu  tau(   5) = (   0.0000000   0.3333332   0.0437404  )
         6           Cu  tau(   6) = (   0.1666664   0.5000000   0.0437372  )
         7           Pd  tau(   7) = (   0.0000000   0.5000008   0.1530228  )
         8           Pd  tau(   8) = (   0.1666670   0.3333332   0.1530224  )
         9           Cu  tau(   9) = (   0.3333349   0.0000000   0.0437394  )
        10           Cu  tau(  10) = (   0.4999999   0.1666644   0.0437382  )
        11           Pd  tau(  11) = (   0.3333330   0.1666672   0.1530225  )
        12           Pd  tau(  12) = (   0.4999999   0.0000000   0.1530246  )
        13           Cu  tau(  13) = (   0.3333334   0.3333332   0.0437374  )
        14           Cu  tau(  14) = (   0.4999999   0.5000022   0.0437382  )
        15           Pd  tau(  15) = (   0.3333330   0.4999994   0.1530225  )
        16           Pd  tau(  16) = (   0.4999999   0.3333332   0.1530210  )
        17           Cu  tau(  17) = (   0.6666647   0.0000000   0.0437394  )
        18           Cu  tau(  18) = (   0.8333333   0.1666666   0.0437372  )
        19           Pd  tau(  19) = (   0.6666667   0.1666672   0.1530225  )
        20           Pd  tau(  20) = (   0.8333333   0.0000000   0.1530226  )
        21           Cu  tau(  21) = (   0.6666662   0.3333332   0.0437374  )
        22           Cu  tau(  22) = (   0.8333333   0.5000000   0.0437372  )
        23           Pd  tau(  23) = (   0.6666667   0.4999994   0.1530225  )
        24           Pd  tau(  24) = (   0.8333327   0.3333332   0.1530224  )
        25           Cu  tau(  25) = (   0.0000000   0.0000000   0.2827943  )
        26           Cu  tau(  26) = (   0.1666664   0.1666666   0.2827960  )
        27           Pd  tau(  27) = (   0.0000000   0.1666658   0.3920816  )
        28           Pd  tau(  28) = (   0.1666660   0.0000000   0.3920814  )
        29           Cu  tau(  29) = (   0.0000000   0.3333332   0.2827992  )
        30           Cu  tau(  30) = (   0.1666664   0.5000000   0.2827960  )
        31           Pd  tau(  31) = (   0.0000000   0.5000008   0.3920816  )
        32           Pd  tau(  32) = (   0.1666670   0.3333332   0.3920812  )
        33           Cu  tau(  33) = (   0.3333349   0.0000000   0.2827982  )
        34           Cu  tau(  34) = (   0.4999999   0.1666644   0.2827970  )
        35           Pd  tau(  35) = (   0.3333330   0.1666672   0.3920813  )
        36           Pd  tau(  36) = (   0.4999999   0.0000000   0.3920834  )
        37           Cu  tau(  37) = (   0.3333334   0.3333332   0.2827962  )
        38           Cu  tau(  38) = (   0.4999999   0.5000022   0.2827970  )
        39           Pd  tau(  39) = (   0.3333330   0.4999994   0.3920813  )
        40           Pd  tau(  40) = (   0.4999999   0.3333332   0.3920798  )
        41           Cu  tau(  41) = (   0.6666647   0.0000000   0.2827982  )
        42           Cu  tau(  42) = (   0.8333333   0.1666666   0.2827960  )
        43           Pd  tau(  43) = (   0.6666667   0.1666672   0.3920813  )
        44           Pd  tau(  44) = (   0.8333333   0.0000000   0.3920814  )
        45           Cu  tau(  45) = (   0.6666662   0.3333332   0.2827962  )
        46           Cu  tau(  46) = (   0.8333333   0.5000000   0.2827960  )
        47           Pd  tau(  47) = (   0.6666667   0.4999994   0.3920813  )
        48           Pd  tau(  48) = (   0.8333327   0.3333332   0.3920812  )

     number of k points=     9  Methfessel-Paxton smearing, width (Ry)=  0.0200
                       cart. coord. in units 2pi/alat
        k(    1) = (   0.0000000   0.0000000   0.0000000), wk =   0.1250000
        k(    2) = (   0.0000000   0.3749996   0.0000000), wk =   0.2500000
        k(    3) = (   0.0000000  -0.7499991   0.0000000), wk =   0.1250000
        k(    4) = (   0.2500000   0.0000000   0.0000000), wk =   0.2500000
        k(    5) = (   0.2500000   0.3749996   0.0000000), wk =   0.5000000
        k(    6) = (   0.2500000  -0.7499991   0.0000000), wk =   0.2500000
        k(    7) = (  -0.5000000   0.0000000   0.0000000), wk =   0.1250000
        k(    8) = (  -0.5000000   0.3749996   0.0000000), wk =   0.2500000
        k(    9) = (  -0.5000000  -0.7499991   0.0000000), wk =   0.1250000

     Dense  grid:  5054785 G-vectors     FFT dimensions: ( 200, 135, 384)

     Smooth grid:  1134089 G-vectors     FFT dimensions: ( 120,  80, 240)

     Estimated max dynamical RAM per process >       2.17 GB

     Estimated total dynamical RAM >      34.73 GB

     Atomic positions and unit cell read from directory:
     /users/aafshar4/scratch/CuPd_rlx_1st_BBEF-vdW.save/
     Atomic positions from file used, from input discarded
 

     The initial density is read from file :
     /users/aafshar4/scratch/CuPd_rlx_1st_BBEF-vdW.save/charge-density


     negative rho (up, down):  1.880E+00 0.000E+00
     Starting wfcs from file
     Calculation restarted from scf iteration #     2

     total cpu time spent up to now is        7.3 secs

     Self-consistent Calculation

     iteration #  2     ecut=    60.00 Ry     beta= 0.30
     Calculation restarted from kpoint #     5
     Davidson diagonalization with overlap
     c_bands:  2 eigenvalues not converged
     ethr =  6.46E-10,  avg # of iterations =  7.9

     negative rho (up, down):  1.880E+00 0.000E+00

     total cpu time spent up to now is      116.5 secs

     total energy              =  -14458.51603136 Ry
     estimated scf accuracy    <       0.00032777 Ry

     iteration #  3     ecut=    60.00 Ry     beta= 0.30
     Davidson diagonalization with overlap
     ethr =  6.46E-10,  avg # of iterations =  2.3

     negative rho (up, down):  1.880E+00 0.000E+00

     total cpu time spent up to now is      240.5 secs

     total energy              =  -14458.51604162 Ry
     estimated scf accuracy    <       0.00000056 Ry

     iteration #  4     ecut=    60.00 Ry     beta= 0.30
     Davidson diagonalization with overlap
     ethr =  6.66E-11,  avg # of iterations =  2.7

     negative rho (up, down):  1.880E+00 0.000E+00

     total cpu time spent up to now is      357.2 secs

     total energy              =  -14458.51604168 Ry
     estimated scf accuracy    <       0.00000010 Ry

     iteration #  5     ecut=    60.00 Ry     beta= 0.30
     Davidson diagonalization with overlap
     ethr =  1.25E-11,  avg # of iterations =  2.1

     negative rho (up, down):  1.880E+00 0.000E+00

     total cpu time spent up to now is      483.0 secs

     total energy              =  -14458.51604168 Ry
     estimated scf accuracy    <       0.00000022 Ry

     iteration #  6     ecut=    60.00 Ry     beta= 0.30
     Davidson diagonalization with overlap
     ethr =  1.25E-11,  avg # of iterations =  1.1

     negative rho (up, down):  1.880E+00 0.000E+00

     total cpu time spent up to now is      583.6 secs

     total energy              =  -14458.51604169 Ry
     estimated scf accuracy    <       0.00000029 Ry

     iteration #  7     ecut=    60.00 Ry     beta= 0.30
     Davidson diagonalization with overlap
     ethr =  1.25E-11,  avg # of iterations =  1.0

     negative rho (up, down):  1.880E+00 0.000E+00

     total cpu time spent up to now is      684.0 secs

     total energy              =  -14458.51604170 Ry
     estimated scf accuracy    <          8.1E-09 Ry

     iteration #  8     ecut=    60.00 Ry     beta= 0.30
     Davidson diagonalization with overlap
     ethr =  9.59E-13,  avg # of iterations =  2.0

     negative rho (up, down):  1.880E+00 0.000E+00

     total cpu time spent up to now is      810.3 secs

     total energy              =  -14458.51604170 Ry
     estimated scf accuracy    <       0.00000002 Ry

     iteration #  9     ecut=    60.00 Ry     beta= 0.30
     Davidson diagonalization with overlap
     ethr =  9.59E-13,  avg # of iterations =  1.0

     negative rho (up, down):  1.880E+00 0.000E+00

     total cpu time spent up to now is      910.0 secs

     total energy              =  -14458.51604170 Ry
     estimated scf accuracy    <          2.7E-09 Ry

     iteration # 10     ecut=    60.00 Ry     beta= 0.30
     Davidson diagonalization with overlap
     ethr =  3.27E-13,  avg # of iterations =  1.0

     negative rho (up, down):  1.880E+00 0.000E+00

     total cpu time spent up to now is     1009.2 secs

     total energy              =  -14458.51604170 Ry
     estimated scf accuracy    <          4.3E-10 Ry

     iteration # 11     ecut=    60.00 Ry     beta= 0.30
     Davidson diagonalization with overlap
     ethr =  1.00E-13,  avg # of iterations =  1.7

     negative rho (up, down):  1.880E+00 0.000E+00

     total cpu time spent up to now is     1118.7 secs

     total energy              =  -14458.51604170 Ry
     estimated scf accuracy    <          2.2E-10 Ry

     iteration # 12     ecut=    60.00 Ry     beta= 0.30
     Davidson diagonalization with overlap
     ethr =  1.00E-13,  avg # of iterations =  1.0

     negative rho (up, down):  1.880E+00 0.000E+00

     total cpu time spent up to now is     1218.8 secs

     total energy              =  -14458.51604170 Ry
     estimated scf accuracy    <          1.0E-09 Ry

     iteration # 13     ecut=    60.00 Ry     beta= 0.30
     Davidson diagonalization with overlap
     ethr =  1.00E-13,  avg # of iterations =  1.0

     negative rho (up, down):  1.880E+00 0.000E+00

     total cpu time spent up to now is     1318.4 secs

     total energy              =  -14458.51604170 Ry
     estimated scf accuracy    <          1.2E-10 Ry

     iteration # 14     ecut=    60.00 Ry     beta= 0.30
     Davidson diagonalization with overlap
     ethr =  1.00E-13,  avg # of iterations =  1.1

     negative rho (up, down):  1.880E+00 0.000E+00

     total cpu time spent up to now is     1419.4 secs

     End of self-consistent calculation

          k = 0.0000 0.0000 0.0000 (141809 PWs)   bands (ev):

  -111.0200-111.0198-111.0195-111.0192-111.0191-111.0191-111.0191-111.0190
  -111.0190-111.0186-111.0184-111.0181-110.6141-110.6139-110.6137-110.6134
  -110.6134-110.6134-110.6134-110.6133-110.6133-110.6130-110.6128-110.6126
   -68.4204 -68.4201 -68.4199 -68.4195 -68.4194 -68.4194 -68.4193 -68.4193
   -68.4192 -68.4188 -68.4186 -68.4184 -68.4183 -68.4183 -68.4183 -68.4182
   -68.4181 -68.4179 -68.4165 -68.4164 -68.4160 -68.4159 -68.4146 -68.4146
   -68.4141 -68.4141 -68.4128 -68.4126 -68.4123 -68.4121 -68.4107 -68.4105
   -68.4105 -68.4103 -68.4103 -68.4102 -68.0537 -68.0535 -68.0534 -68.0533
   -68.0533 -68.0530 -68.0517 -68.0517 -68.0511 -68.0510 -68.0498 -68.0498
   -68.0492 -68.0492 -68.0480 -68.0479 -68.0473 -68.0472 -68.0460 -68.0457
   -68.0457 -68.0456 -68.0455 -68.0453 -67.9809 -67.9806 -67.9805 -67.9801
   -67.9801 -67.9800 -67.9800 -67.9800 -67.9799 -67.9795 -67.9794 -67.9791
   -49.0074 -49.0074 -49.0072 -49.0072 -49.0056 -49.0041 -48.9855 -48.9854
   -48.9848 -48.9847 -48.9665 -48.9664 -48.9664 -48.9638 -48.9638 -48.9623
   -48.9622 -48.9583 -48.9582 -48.9580 -48.9580 -48.9579 -48.9577 -48.9542
   -48.9541 -48.9503 -48.9451 -48.9450 -48.9444 -48.9443 -48.9248 -48.9234
   -48.9234 -48.9232 -48.9232 -48.9232 -48.4448 -48.4448 -48.4447 -48.4447
   -48.4433 -48.4419 -48.4240 -48.4239 -48.4219 -48.4218 -48.4032 -48.4032
   -48.4028 -48.4028 -48.3838 -48.3837 -48.3817 -48.3817 -48.3629 -48.3617
   -48.3617 -48.3616 -48.3616 -48.3615 -48.2736 -48.2696 -48.2695 -48.2657
   -48.2656 -48.2655 -48.2655 -48.2654 -48.2653 -48.2617 -48.2616 -48.2578
    -6.2137  -5.2451  -5.2450  -4.2876  -4.2874  -4.1723  -4.0384  -3.9846
    -3.9845  -3.9845  -3.9844  -3.7495  -3.7494  -3.5806  -3.5805  -3.5490
    -3.5490  -3.5489  -3.5489  -3.4679  -3.2272  -3.1673  -3.1671  -3.0569
    -3.0568  -3.0318  -3.0317  -2.9385  -2.9131  -2.9122  -2.9018  -2.9018
    -2.9018  -2.9017  -2.8234  -2.8233  -2.7915  -2.7914  -2.7260  -2.7259
    -2.7144  -2.6623  -2.6623  -2.6562  -2.6340  -2.6339  -2.6338  -2.6338
    -2.5904  -2.5904  -2.5272  -2.4328  -2.4327  -2.3965  -2.3965  -2.3961
    -2.3961  -2.3891  -2.3891  -2.3535  -2.3535  -2.3355  -2.3354  -2.3354
    -2.3353  -2.2591  -2.2590  -2.2510  -2.2510  -2.2509  -2.2508  -2.1984
    -2.1983  -2.1709  -2.1708  -2.1498  -2.1497  -2.1497  -2.1497  -2.0831
    -2.0830  -1.9990  -1.9989  -1.9105  -1.9104  -1.8949  -1.8949  -1.8798
    -1.8798  -1.8249  -1.8248  -1.7700  -1.7699  -1.7588  -1.7276  -1.7276
    -1.7276  -1.7276  -1.7039  -1.7038  -1.6740  -1.6732  -1.5199  -1.5198
    -1.5004  -1.5004  -1.4493  -1.2720  -1.2719  -1.2450  -1.2450  -1.2358
    -1.2358  -1.2357  -1.2357  -1.2185  -1.1932  -1.1930  -1.1489  -1.1489
    -1.1350  -1.1350  -1.1276  -1.1276  -1.1275  -1.1275  -1.1104  -1.1103
    -1.0403  -1.0403  -1.0403  -1.0403  -0.9725  -0.9724  -0.9267  -0.9267
    -0.8892  -0.8891  -0.8650  -0.8650  -0.8627  -0.8626  -0.8626  -0.8626
    -0.8344  -0.7352  -0.7352  -0.7015  -0.7015  -0.7015  -0.7015  -0.6581
    -0.6581  -0.6581  -0.6580  -0.6318  -0.5883  -0.5882  -0.5659  -0.5310
    -0.5136  -0.5136  -0.5030  -0.5030  -0.4713  -0.4713  -0.4713  -0.4712
    -0.4471  -0.4470  -0.4470  -0.4469  -0.4468  -0.4467  -0.4461  -0.4461
    -0.4191  -0.4189  -0.4174  -0.4174  -0.4009  -0.4008  -0.4003  -0.3976
    -0.3976  -0.3943  -0.3566  -0.3565  -0.3259  -0.3259  -0.3065  -0.3009
    -0.3009  -0.2813  -0.2813  -0.2612  -0.2611  -0.2539  -0.2198  -0.2198
    -0.1825  -0.1825  -0.1793  -0.1793  -0.1792  -0.1792  -0.1750  -0.1750
    -0.1231  -0.0400  -0.0400  -0.0400  -0.0399  -0.0206  -0.0205  -0.0173
    -0.0173   0.0348   0.0349   0.0582   0.0583   0.0893   0.0893   0.1075
     0.1075   0.1472   0.2257   0.2257   0.2407   0.2408   0.2408   0.2409
     0.2652   0.3138   0.3138   0.3196   0.3197   0.3294   0.3295   0.3649
     0.3649   0.3672   0.3791   0.3791   0.3791   0.3791   0.4363   0.4363
     0.4363   0.4364   0.4553   0.4553   0.5080   0.7117   0.8545   0.9447
     0.9448   1.1634   1.1635   1.1635   1.1636   1.7442   1.7442   2.3914
     2.3914   2.7939   2.7939   2.7940   2.7941   2.9118   2.9451   2.9451
     2.9451   2.9452   2.9788   2.9789   3.0392   3.0394   4.0241   4.0241
     4.3923   4.3923   4.3924   4.3924   4.6303   4.6304   4.7352   5.0979
     5.0980   5.2386   5.2922   5.3029   5.3029   5.5321   5.5322   5.5322
     5.5322   5.6994   5.6996   6.1381   6.1384   6.2135   6.2137   6.2437
     6.2439   6.4038   6.4528   6.5700   6.7512   6.7513   6.8673   6.8673
     6.9026   6.9026   7.3248   7.3869   7.3869   7.4154   7.4154   7.4940
     7.4943   7.5302   7.5304   7.6154   7.6155   7.6576   7.6577   7.6577
     7.6577   7.8126   7.8128   7.8622   7.9481   7.9481   7.9482   7.9483

          k = 0.0000 0.3750 0.0000 (141761 PWs)   bands (ev):

  -111.0200-111.0198-111.0195-111.0192-111.0191-111.0191-111.0190-111.0190
  -111.0189-111.0186-111.0184-111.0181-110.6141-110.6139-110.6137-110.6135
  -110.6134-110.6134-110.6134-110.6133-110.6132-110.6130-110.6128-110.6126
   -68.4204 -68.4201 -68.4199 -68.4195 -68.4194 -68.4194 -68.4193 -68.4193
   -68.4191 -68.4188 -68.4187 -68.4186 -68.4186 -68.4183 -68.4182 -68.4178
   -68.4177 -68.4176 -68.4170 -68.4170 -68.4160 -68.4155 -68.4146 -68.4146
   -68.4141 -68.4140 -68.4131 -68.4126 -68.4116 -68.4116 -68.4110 -68.4109
   -68.4108 -68.4105 -68.4100 -68.4100 -68.0538 -68.0538 -68.0534 -68.0529
   -68.0529 -68.0527 -68.0522 -68.0522 -68.0513 -68.0506 -68.0498 -68.0497
   -68.0493 -68.0492 -68.0484 -68.0477 -68.0468 -68.0468 -68.0463 -68.0461
   -68.0461 -68.0456 -68.0452 -68.0452 -67.9808 -67.9806 -67.9805 -67.9802
   -67.9801 -67.9800 -67.9800 -67.9799 -67.9798 -67.9795 -67.9794 -67.9791
   -49.0118 -49.0118 -49.0027 -49.0011 -48.9997 -48.9997 -48.9963 -48.9963
   -48.9817 -48.9792 -48.9676 -48.9676 -48.9659 -48.9624 -48.9624 -48.9620
   -48.9619 -48.9613 -48.9595 -48.9594 -48.9565 -48.9564 -48.9551 -48.9544
   -48.9543 -48.9509 -48.9507 -48.9483 -48.9343 -48.9343 -48.9301 -48.9301
   -48.9280 -48.9263 -48.9187 -48.9187 -48.4492 -48.4492 -48.4403 -48.4390
   -48.4374 -48.4374 -48.4339 -48.4339 -48.4186 -48.4180 -48.4056 -48.4056
   -48.4003 -48.4003 -48.3878 -48.3872 -48.3725 -48.3725 -48.3683 -48.3683
   -48.3660 -48.3647 -48.3570 -48.3570 -48.2729 -48.2693 -48.2692 -48.2686
   -48.2670 -48.2669 -48.2640 -48.2639 -48.2626 -48.2620 -48.2619 -48.2584
    -6.0698  -5.1296  -5.1294  -5.0130  -4.3617  -4.3616  -4.0752  -3.9669
    -3.7945  -3.7908  -3.7907  -3.6940  -3.6940  -3.6893  -3.6892  -3.6191
    -3.6190  -3.4625  -3.4052  -3.2115  -3.2115  -3.1935  -3.1935  -3.1581
    -3.0701  -3.0052  -3.0051  -3.0022  -3.0022  -2.9898  -2.9897  -2.9538
    -2.9209  -2.9077  -2.8845  -2.8154  -2.8153  -2.7736  -2.7735  -2.7634
    -2.7562  -2.7375  -2.7375  -2.6803  -2.6307  -2.6307  -2.6174  -2.6142
    -2.5918  -2.5917  -2.5656  -2.5655  -2.4991  -2.3962  -2.3962  -2.3952
    -2.3542  -2.3515  -2.3514  -2.3372  -2.3206  -2.3206  -2.2882  -2.2881
    -2.2482  -2.2395  -2.2282  -2.2282  -2.2095  -2.2095  -2.1888  -2.1371
    -2.1370  -2.1302  -2.1302  -2.1259  -2.1219  -2.1218  -2.0677  -2.0677
    -2.0426  -2.0386  -2.0385  -2.0268  -2.0267  -1.9432  -1.9432  -1.9331
    -1.9246  -1.8944  -1.7961  -1.7961  -1.7702  -1.7197  -1.7077  -1.6490
    -1.6123  -1.6123  -1.5959  -1.5959  -1.5732  -1.5022  -1.4029  -1.4028
    -1.3939  -1.3938  -1.3583  -1.3563  -1.3256  -1.2836  -1.2836  -1.2558
    -1.2557  -1.2244  -1.1908  -1.1907  -1.1500  -1.1500  -1.1388  -1.1388
    -1.1282  -1.1232  -1.1222  -1.1093  -1.1088  -1.1088  -1.0693  -1.0692
    -1.0680  -1.0679  -1.0657  -1.0657  -1.0276  -1.0275  -0.9809  -0.9614
    -0.9614  -0.9511  -0.9510  -0.9488  -0.9354  -0.9354  -0.9297  -0.7833
    -0.7613  -0.7613  -0.7213  -0.7213  -0.6536  -0.6536  -0.6496  -0.6327
    -0.6326  -0.6128  -0.6104  -0.6104  -0.5914  -0.5914  -0.5684  -0.5684
    -0.5601  -0.5514  -0.5315  -0.5314  -0.5098  -0.5098  -0.4962  -0.4888
    -0.4827  -0.4827  -0.4556  -0.4556  -0.4449  -0.4449  -0.4417  -0.4417
    -0.4386  -0.4160  -0.4130  -0.4026  -0.4015  -0.3816  -0.3724  -0.3663
    -0.3663  -0.3650  -0.3432  -0.3432  -0.3235  -0.3235  -0.3234  -0.3224
    -0.3179  -0.3179  -0.3131  -0.2898  -0.2898  -0.2729  -0.2483  -0.2483
    -0.2392  -0.2247  -0.2247  -0.2120  -0.1870  -0.1869  -0.1706  -0.1706
    -0.1393  -0.1393  -0.0623  -0.0568  -0.0347  -0.0347  -0.0103  -0.0042
     0.0018   0.0018   0.0193   0.0266   0.0323   0.0323   0.0520   0.0521
     0.0965   0.0966   0.1040   0.1040   0.1537   0.1799   0.1799   0.2339
     0.2343   0.2454   0.2475   0.2475   0.2595   0.3143   0.3218   0.3331
     0.3482   0.3523   0.3523   0.3542   0.3542   0.4247   0.4247   0.4458
     0.5030   0.5030   0.5165   0.5165   0.6841   0.7296   0.7297   0.8554
     1.0080   1.0080   1.7771   1.7772   1.9756   2.0118   2.1934   2.1935
     2.3072   2.3181   2.3182   2.4902   2.4903   2.4974   2.4975   3.0716
     3.1101   3.1102   3.4409   3.7263   3.7263   4.0667   4.0668   4.0998
     4.0999   4.1816   4.3058   4.5750   4.5751   4.6798   4.6798   4.6956
     4.6956   4.8678   4.8752   5.3797   5.4267   5.4947   5.5763   5.5763
     5.7040   5.7040   5.8163   5.8165   5.9205   5.9206   5.9492   6.3271
     6.3273   6.3656   6.3658   6.3812   6.4656   6.4883   6.4947   6.6108
     6.6684   6.7044   6.8460   6.8461   6.9135   6.9135   6.9291   6.9293
     7.3282   7.3284   7.5073   7.5090   7.5092   7.5797   7.5799   7.6581
     7.6583   7.7443   7.7874   7.8806   7.9420   7.9878   8.0442   8.0633

          k = 0.0000-0.7500 0.0000 (141708 PWs)   bands (ev):

  -111.0200-111.0198-111.0195-111.0192-111.0191-111.0191-111.0190-111.0190
  -111.0189-111.0186-111.0184-111.0181-110.6141-110.6139-110.6137-110.6135
  -110.6134-110.6134-110.6133-110.6133-110.6132-110.6130-110.6128-110.6126
   -68.4203 -68.4201 -68.4199 -68.4196 -68.4194 -68.4194 -68.4193 -68.4193
   -68.4191 -68.4188 -68.4186 -68.4185 -68.4185 -68.4184 -68.4184 -68.4183
   -68.4176 -68.4171 -68.4170 -68.4164 -68.4157 -68.4157 -68.4157 -68.4156
   -68.4130 -68.4130 -68.4129 -68.4129 -68.4122 -68.4117 -68.4116 -68.4110
   -68.4102 -68.4102 -68.4102 -68.4101 -68.0537 -68.0536 -68.0536 -68.0535
   -68.0528 -68.0523 -68.0521 -68.0516 -68.0509 -68.0509 -68.0508 -68.0508
   -68.0482 -68.0481 -68.0481 -68.0481 -68.0474 -68.0469 -68.0467 -68.0462
   -68.0454 -68.0454 -68.0454 -68.0453 -67.9808 -67.9806 -67.9805 -67.9803
   -67.9801 -67.9801 -67.9799 -67.9799 -67.9797 -67.9796 -67.9794 -67.9792
   -49.0091 -49.0091 -49.0090 -49.0090 -48.9947 -48.9940 -48.9927 -48.9920
   -48.9806 -48.9806 -48.9806 -48.9805 -48.9643 -48.9637 -48.9613 -48.9612
   -48.9607 -48.9605 -48.9556 -48.9555 -48.9549 -48.9548 -48.9529 -48.9522
   -48.9498 -48.9498 -48.9498 -48.9498 -48.9375 -48.9369 -48.9355 -48.9348
   -48.9211 -48.9211 -48.9210 -48.9210 -48.4466 -48.4466 -48.4466 -48.4466
   -48.4318 -48.4313 -48.4309 -48.4304 -48.4183 -48.4183 -48.4182 -48.4182
   -48.3879 -48.3879 -48.3879 -48.3879 -48.3750 -48.3745 -48.3741 -48.3736
   -48.3593 -48.3593 -48.3593 -48.3593 -48.2714 -48.2709 -48.2686 -48.2685
   -48.2681 -48.2680 -48.2630 -48.2629 -48.2625 -48.2625 -48.2603 -48.2598
    -5.6527  -5.6519  -4.8071  -4.8069  -4.8063  -4.8062  -3.8113  -3.8107
    -3.8024  -3.8018  -3.6824  -3.6823  -3.6821  -3.6820  -3.6568  -3.6568
    -3.6565  -3.6565  -3.2270  -3.2269  -3.2266  -3.2265  -3.2198  -3.2192
    -3.0146  -3.0141  -3.0038  -3.0038  -3.0037  -3.0036  -2.9731  -2.9725
    -2.8695  -2.8695  -2.8693  -2.8693  -2.8418  -2.8412  -2.8246  -2.8246
    -2.8244  -2.8243  -2.8043  -2.8036  -2.5704  -2.5703  -2.5700  -2.5699
    -2.5592  -2.5591  -2.5587  -2.5587  -2.4928  -2.4924  -2.4467  -2.4465
    -2.4319  -2.4315  -2.4002  -2.4001  -2.4001  -2.4000  -2.2306  -2.2306
    -2.2306  -2.2305  -2.2203  -2.2198  -2.1301  -2.1297  -2.1225  -2.1224
    -2.1224  -2.1224  -2.0949  -2.0949  -2.0945  -2.0945  -2.0590  -2.0589
    -2.0588  -2.0587  -2.0354  -2.0353  -2.0351  -2.0350  -1.9623  -1.9619
    -1.7625  -1.7622  -1.6536  -1.6536  -1.6378  -1.6377  -1.6273  -1.6271
    -1.5625  -1.5624  -1.4614  -1.4614  -1.4612  -1.4612  -1.3394  -1.3394
    -1.3393  -1.3393  -1.2996  -1.2996  -1.2996  -1.2995  -1.2617  -1.2616
    -1.2613  -1.2612  -1.1987  -1.1984  -1.1466  -1.1466  -1.1462  -1.1462
    -1.1455  -1.1454  -1.1451  -1.1451  -1.1389  -1.1389  -1.0667  -1.0665
    -1.0522  -1.0522  -1.0520  -1.0520  -1.0251  -1.0249  -1.0199  -1.0199
    -1.0196  -1.0196  -0.9336  -0.9336  -0.9334  -0.9334  -0.8697  -0.8697
    -0.8696  -0.8696  -0.7354  -0.7354  -0.7353  -0.7353  -0.6976  -0.6974
    -0.6244  -0.6242  -0.5987  -0.5986  -0.5986  -0.5986  -0.5605  -0.5600
    -0.5531  -0.5531  -0.5530  -0.5530  -0.5253  -0.5249  -0.5123  -0.5122
    -0.5120  -0.5120  -0.4954  -0.4954  -0.4952  -0.4952  -0.4696  -0.4692
    -0.4504  -0.4500  -0.4084  -0.4084  -0.4082  -0.4082  -0.3551  -0.3550
    -0.3549  -0.3549  -0.3510  -0.3507  -0.3504  -0.3501  -0.3355  -0.3352
    -0.2959  -0.2958  -0.2956  -0.2955  -0.2673  -0.2672  -0.2670  -0.2669
    -0.2343  -0.2342  -0.2096  -0.2096  -0.2095  -0.2095  -0.1604  -0.1603
    -0.1546  -0.1546  -0.1545  -0.1545  -0.1309  -0.1309  -0.1077  -0.1077
    -0.1073  -0.1073  -0.0802  -0.0801   0.0445   0.0447   0.0630   0.0631
     0.0631   0.0632   0.1012   0.1012   0.1013   0.1014   0.1460   0.1464
     0.2551   0.2555   0.2922   0.2924   0.3164   0.3169   0.3756   0.3756
     0.3756   0.3756   0.4117   0.4118   0.4120   0.4121   0.4419   0.4419
     0.5170   0.5171   0.5172   0.5172   1.0937   1.0940   1.1473   1.1474
     1.1476   1.1476   1.2951   1.2954   1.9240   1.9241   1.9245   1.9245
     2.6586   2.6587   2.6589   2.6590   2.7640   2.7640   2.7645   2.7646
     3.3166   3.3169   3.5465   3.5469   4.0502   4.0502   4.0503   4.0503
     4.2770   4.2771   4.2774   4.2774   4.3546   4.3551   4.9136   4.9136
     4.9139   4.9139   5.2245   5.2246   5.2247   5.2247   5.2842   5.2844
     5.5744   5.5745   5.7936   5.7938   5.8288   5.8290   6.1328   6.1328
     6.1329   6.1330   6.1489   6.1490   6.1490   6.1490   6.5813   6.5814
     6.5815   6.5817   6.7444   6.7445   6.7446   6.7447   7.0293   7.0299
     7.0608   7.0610   7.1076   7.1077   7.2204   7.2205   7.2205   7.2206
     7.4944   7.4949   7.8073   7.8080   7.9949   7.9951   7.9951   7.9952

          k = 0.2500 0.0000 0.0000 (141783 PWs)   bands (ev):

  -111.0200-111.0198-111.0195-111.0192-111.0191-111.0191-111.0191-111.0190
  -111.0190-111.0186-111.0184-111.0181-110.6141-110.6139-110.6137-110.6134
  -110.6134-110.6134-110.6134-110.6133-110.6133-110.6130-110.6128-110.6126
   -68.4204 -68.4201 -68.4199 -68.4194 -68.4194 -68.4194 -68.4193 -68.4193
   -68.4192 -68.4188 -68.4187 -68.4187 -68.4185 -68.4183 -68.4183 -68.4178
   -68.4177 -68.4176 -68.4170 -68.4166 -68.4155 -68.4155 -68.4155 -68.4150
   -68.4136 -68.4132 -68.4132 -68.4131 -68.4120 -68.4116 -68.4110 -68.4109
   -68.4108 -68.4103 -68.4100 -68.4099 -68.0538 -68.0538 -68.0535 -68.0529
   -68.0528 -68.0527 -68.0523 -68.0518 -68.0508 -68.0507 -68.0507 -68.0501
   -68.0489 -68.0483 -68.0483 -68.0482 -68.0472 -68.0467 -68.0463 -68.0462
   -68.0461 -68.0455 -68.0452 -68.0452 -67.9809 -67.9807 -67.9805 -67.9801
   -67.9801 -67.9800 -67.9800 -67.9800 -67.9799 -67.9796 -67.9793 -67.9791
   -49.0122 -49.0122 -49.0043 -49.0028 -48.9995 -48.9995 -48.9938 -48.9928
   -48.9777 -48.9777 -48.9757 -48.9752 -48.9662 -48.9640 -48.9603 -48.9583
   -48.9581 -48.9580 -48.9580 -48.9579 -48.9577 -48.9560 -48.9548 -48.9543
   -48.9525 -48.9525 -48.9525 -48.9506 -48.9367 -48.9357 -48.9309 -48.9309
   -48.9261 -48.9247 -48.9185 -48.9185 -48.4496 -48.4496 -48.4420 -48.4406
   -48.4371 -48.4371 -48.4320 -48.4302 -48.4154 -48.4154 -48.4145 -48.4122
   -48.3937 -48.3914 -48.3906 -48.3906 -48.3752 -48.3734 -48.3692 -48.3692
   -48.3644 -48.3629 -48.3569 -48.3569 -48.2733 -48.2712 -48.2676 -48.2657
   -48.2656 -48.2655 -48.2655 -48.2654 -48.2653 -48.2635 -48.2601 -48.2581
    -6.1495  -5.6524  -4.7699  -4.2532  -4.2529  -4.1286  -4.0527  -4.0525
    -4.0058  -3.9720  -3.9719  -3.9054  -3.8109  -3.8021  -3.5632  -3.5631
    -3.4932  -3.4931  -3.4400  -3.3495  -3.2398  -3.2397  -3.2195  -3.1961
    -3.0821  -3.0136  -2.9728  -2.9376  -2.9207  -2.9007  -2.8705  -2.8704
    -2.8482  -2.8482  -2.8415  -2.8048  -2.8014  -2.7289  -2.7019  -2.6905
    -2.6904  -2.6661  -2.6599  -2.6599  -2.6374  -2.6352  -2.6061  -2.6060
    -2.5913  -2.5912  -2.5144  -2.4924  -2.4745  -2.4744  -2.4465  -2.4318
    -2.4121  -2.4023  -2.4023  -2.3539  -2.3506  -2.3356  -2.3356  -2.3337
    -2.3336  -2.2727  -2.2727  -2.2541  -2.2520  -2.2328  -2.2328  -2.2200
    -2.2047  -2.2047  -2.1928  -2.1829  -2.1829  -2.1800  -2.1530  -2.1299
    -2.0611  -2.0611  -1.9629  -1.9404  -1.9205  -1.8685  -1.7881  -1.7880
    -1.7624  -1.7584  -1.7583  -1.7561  -1.7561  -1.7349  -1.7267  -1.7207
    -1.6623  -1.6622  -1.6603  -1.6532  -1.6378  -1.6272  -1.5624  -1.5141
    -1.4975  -1.4606  -1.4606  -1.4073  -1.3149  -1.3149  -1.3098  -1.3097
    -1.2880  -1.2880  -1.2345  -1.2345  -1.2250  -1.1985  -1.1548  -1.1542
    -1.1530  -1.1530  -1.1386  -1.1369  -1.1369  -1.1344  -1.0710  -1.0710
    -1.0666  -1.0580  -1.0556  -1.0250  -0.9795  -0.9795  -0.9373  -0.9373
    -0.9247  -0.9130  -0.9129  -0.8803  -0.8508  -0.8508  -0.8275  -0.8275
    -0.8258  -0.7299  -0.7299  -0.7280  -0.7083  -0.7083  -0.6974  -0.6242
    -0.6233  -0.6124  -0.6124  -0.6024  -0.6024  -0.5980  -0.5980  -0.5624
    -0.5603  -0.5387  -0.5312  -0.5312  -0.5250  -0.4928  -0.4928  -0.4778
    -0.4697  -0.4645  -0.4503  -0.4400  -0.4264  -0.4264  -0.4194  -0.4146
    -0.4146  -0.4143  -0.4111  -0.4026  -0.3820  -0.3757  -0.3757  -0.3700
    -0.3646  -0.3573  -0.3509  -0.3501  -0.3356  -0.3131  -0.3110  -0.2982
    -0.2982  -0.2815  -0.2815  -0.2513  -0.2426  -0.2351  -0.2351  -0.2342
    -0.2318  -0.2318  -0.2037  -0.2037  -0.1654  -0.1604  -0.1415  -0.1415
    -0.1306  -0.1113  -0.0976  -0.0970  -0.0970  -0.0802  -0.0772  -0.0395
     0.0031   0.0446   0.0860   0.1037   0.1037   0.1292   0.1367   0.1381
     0.1381   0.1462   0.1527   0.1527   0.2512   0.2552   0.2687   0.2687
     0.2890   0.2890   0.2924   0.3046   0.3140   0.3166   0.3239   0.3279
     0.3330   0.3330   0.3386   0.3539   0.3539   0.4417   0.4440   0.4814
     0.5221   0.5222   0.5307   0.5307   0.7690   0.7747   0.9575   0.9576
     1.0579   1.0579   1.0939   1.2954   1.4012   1.4013   1.5958   2.1523
     2.1524   2.3072   2.5177   2.5178   2.6741   2.9828   2.9898   2.9899
     3.0407   3.0408   3.2281   3.3171   3.5467   3.6907   3.6908   3.7557
     4.1239   4.1239   4.3547   4.6139   4.7978   4.9917   4.9918   5.2645
     5.2645   5.2843   5.2955   5.2956   5.3016   5.3520   5.3853   5.5745
     5.7937   5.8289   5.8323   5.8323   5.9036   5.9572   5.9574   6.0772
     6.2271   6.2481   6.5236   6.6298   6.6903   6.7453   6.7740   6.9057
     6.9057   7.0294   7.0609   7.1077   7.3802   7.3802   7.3986   7.3986
     7.4525   7.4598   7.4598   7.4947   7.6186   7.6233   7.7808   7.7808
     7.8077   7.8353   7.8353   7.9054   7.9056   7.9668   7.9875   7.9875

          k = 0.2500 0.3750 0.0000 (141736 PWs)   bands (ev):

  -111.0200-111.0198-111.0195-111.0192-111.0191-111.0191-111.0191-111.0190
  -111.0189-111.0186-111.0184-111.0181-110.6141-110.6139-110.6137-110.6135
  -110.6134-110.6134-110.6133-110.6133-110.6132-110.6130-110.6128-110.6126
   -68.4204 -68.4201 -68.4199 -68.4195 -68.4194 -68.4194 -68.4193 -68.4193
   -68.4191 -68.4188 -68.4187 -68.4186 -68.4183 -68.4183 -68.4183 -68.4181
   -68.4180 -68.4174 -68.4168 -68.4167 -68.4162 -68.4155 -68.4151 -68.4146
   -68.4140 -68.4136 -68.4131 -68.4125 -68.4120 -68.4118 -68.4113 -68.4106
   -68.4105 -68.4104 -68.4103 -68.4099 -68.0539 -68.0535 -68.0535 -68.0532
   -68.0531 -68.0524 -68.0520 -68.0519 -68.0513 -68.0507 -68.0503 -68.0498
   -68.0492 -68.0487 -68.0483 -68.0476 -68.0471 -68.0470 -68.0466 -68.0459
   -68.0457 -68.0455 -68.0455 -68.0451 -67.9808 -67.9807 -67.9805 -67.9802
   -67.9801 -67.9800 -67.9800 -67.9799 -67.9798 -67.9796 -67.9794 -67.9791
   -49.0126 -49.0077 -49.0055 -49.0046 -49.0043 -48.9958 -48.9926 -48.9915
   -48.9859 -48.9782 -48.9733 -48.9683 -48.9656 -48.9635 -48.9617 -48.9611
   -48.9602 -48.9602 -48.9587 -48.9572 -48.9568 -48.9560 -48.9559 -48.9552
   -48.9529 -48.9516 -48.9511 -48.9445 -48.9384 -48.9375 -48.9334 -48.9261
   -48.9252 -48.9236 -48.9225 -48.9180 -48.4500 -48.4452 -48.4432 -48.4421
   -48.4420 -48.4336 -48.4303 -48.4292 -48.4236 -48.4160 -48.4112 -48.4063
   -48.3996 -48.3948 -48.3896 -48.3826 -48.3766 -48.3756 -48.3715 -48.3644
   -48.3634 -48.3618 -48.3608 -48.3564 -48.2727 -48.2708 -48.2685 -48.2676
   -48.2675 -48.2662 -48.2647 -48.2636 -48.2634 -48.2627 -48.2605 -48.2587
    -6.0073  -5.5237  -4.9648  -4.6725  -4.6133  -4.1281  -4.0398  -3.9339
    -3.8778  -3.8503  -3.7905  -3.7678  -3.7307  -3.7175  -3.6746  -3.6499
    -3.4974  -3.4514  -3.3803  -3.3785  -3.2358  -3.2144  -3.1774  -3.1557
    -3.1423  -3.1277  -3.0088  -2.9725  -2.9514  -2.9261  -2.9107  -2.9048
    -2.9008  -2.8982  -2.8267  -2.8226  -2.8124  -2.7619  -2.7604  -2.7601
    -2.7294  -2.7070  -2.7011  -2.6940  -2.6736  -2.6639  -2.6192  -2.6041
    -2.5876  -2.5718  -2.5406  -2.5295  -2.5236  -2.4951  -2.4923  -2.4175
    -2.4149  -2.3920  -2.3758  -2.2936  -2.2884  -2.2845  -2.2674  -2.2449
    -2.2435  -2.2394  -2.2390  -2.2348  -2.2283  -2.2222  -2.2122  -2.1782
    -2.1579  -2.1577  -2.1498  -2.1485  -2.1269  -2.1151  -2.1130  -2.1012
    -2.0917  -2.0913  -2.0191  -1.9235  -1.9148  -1.9086  -1.9014  -1.8414
    -1.8199  -1.8094  -1.7540  -1.7518  -1.7020  -1.6828  -1.6822  -1.6761
    -1.6599  -1.6247  -1.6225  -1.6167  -1.4967  -1.4754  -1.4518  -1.4510
    -1.4456  -1.4361  -1.4153  -1.3707  -1.3444  -1.3358  -1.2999  -1.2928
    -1.2926  -1.2915  -1.2190  -1.2163  -1.1934  -1.1904  -1.1478  -1.1345
    -1.1338  -1.1311  -1.1298  -1.1172  -1.1062  -1.0981  -1.0835  -1.0763
    -1.0714  -1.0618  -1.0585  -1.0308  -1.0072  -1.0036  -0.9982  -0.9632
    -0.9435  -0.9434  -0.9407  -0.9081  -0.8843  -0.8789  -0.8235  -0.8135
    -0.8035  -0.7700  -0.7277  -0.7012  -0.6856  -0.6841  -0.6823  -0.6620
    -0.6365  -0.6149  -0.6076  -0.6016  -0.5908  -0.5886  -0.5790  -0.5718
    -0.5699  -0.5634  -0.5521  -0.5519  -0.5353  -0.5118  -0.5069  -0.4990
    -0.4886  -0.4879  -0.4859  -0.4739  -0.4499  -0.4497  -0.4477  -0.4445
    -0.4436  -0.4387  -0.4379  -0.4099  -0.3951  -0.3837  -0.3796  -0.3636
    -0.3606  -0.3462  -0.3438  -0.3406  -0.3357  -0.3227  -0.3115  -0.3081
    -0.3046  -0.2985  -0.2764  -0.2752  -0.2737  -0.2702  -0.2690  -0.2655
    -0.2528  -0.2454  -0.2307  -0.2001  -0.1852  -0.1812  -0.1495  -0.1241
    -0.1135  -0.0864  -0.0779  -0.0509  -0.0298  -0.0281  -0.0085  -0.0013
     0.0010   0.0059   0.0073   0.0215   0.0253   0.0303   0.0927   0.0973
     0.0985   0.1068   0.1091   0.1182   0.1419   0.1791   0.1832   0.2115
     0.2196   0.2505   0.2763   0.2910   0.3111   0.3543   0.3588   0.3662
     0.3667   0.3827   0.3832   0.4047   0.4181   0.4244   0.4292   0.4426
     0.4689   0.4808   0.4993   0.5042   0.5842   0.6244   0.8129   0.8561
     0.8997   1.3477   1.3968   1.6551   2.0109   2.0234   2.0752   2.1449
     2.1527   2.2828   2.3317   2.4658   2.5643   2.7257   2.8888   3.0006
     3.0671   3.1360   3.4143   3.5110   3.6544   3.7847   3.9980   4.1975
     4.3324   4.3446   4.3772   4.4444   4.6494   4.7007   4.7325   4.8951
     4.9221   4.9358   4.9485   5.3695   5.4107   5.4409   5.4411   5.4860
     5.5366   5.6136   5.6496   5.9215   5.9307   5.9578   5.9995   6.0646
     6.0922   6.2092   6.3498   6.3709   6.5129   6.5475   6.6638   6.6720
     6.6779   6.7635   6.8396   6.8933   6.8995   6.9798   6.9955   7.0623
     7.1752   7.2215   7.2317   7.3729   7.3757   7.6818   7.6975   7.7680
     7.7757   7.7873   7.8425   7.8725   7.9746   7.9986   8.1068   8.1114

          k = 0.2500-0.7500 0.0000 (141742 PWs)   bands (ev):

  -111.0200-111.0198-111.0195-111.0192-111.0191-111.0191-111.0191-111.0190
  -111.0189-111.0186-111.0184-111.0181-110.6141-110.6139-110.6137-110.6135
  -110.6134-110.6134-110.6134-110.6133-110.6132-110.6130-110.6128-110.6126
   -68.4203 -68.4201 -68.4199 -68.4196 -68.4195 -68.4194 -68.4193 -68.4192
   -68.4191 -68.4188 -68.4186 -68.4185 -68.4185 -68.4183 -68.4182 -68.4181
   -68.4179 -68.4177 -68.4166 -68.4166 -68.4161 -68.4159 -68.4147 -68.4146
   -68.4140 -68.4139 -68.4127 -68.4125 -68.4120 -68.4120 -68.4109 -68.4107
   -68.4105 -68.4104 -68.4102 -68.4101 -68.0537 -68.0536 -68.0533 -68.0533
   -68.0531 -68.0529 -68.0518 -68.0518 -68.0513 -68.0511 -68.0499 -68.0498
   -68.0492 -68.0491 -68.0479 -68.0477 -68.0472 -68.0472 -68.0461 -68.0459
   -68.0457 -68.0457 -68.0454 -68.0453 -67.9808 -67.9806 -67.9804 -67.9803
   -67.9801 -67.9800 -67.9800 -67.9799 -67.9797 -67.9796 -67.9794 -67.9792
   -49.0094 -49.0094 -49.0057 -49.0057 -49.0013 -49.0013 -48.9909 -48.9909
   -48.9835 -48.9835 -48.9691 -48.9691 -48.9641 -48.9634 -48.9625 -48.9618
   -48.9610 -48.9610 -48.9599 -48.9592 -48.9568 -48.9562 -48.9544 -48.9538
   -48.9531 -48.9524 -48.9462 -48.9461 -48.9395 -48.9395 -48.9282 -48.9282
   -48.9246 -48.9246 -48.9205 -48.9204 -48.4469 -48.4469 -48.4432 -48.4432
   -48.4390 -48.4389 -48.4285 -48.4285 -48.4214 -48.4214 -48.4069 -48.4069
   -48.3991 -48.3991 -48.3841 -48.3841 -48.3777 -48.3777 -48.3665 -48.3664
   -48.3629 -48.3629 -48.3587 -48.3587 -48.2712 -48.2707 -48.2697 -48.2692
   -48.2672 -48.2667 -48.2643 -48.2638 -48.2619 -48.2614 -48.2605 -48.2600
    -5.5952  -5.5944  -5.1562  -5.1554  -4.4168  -4.4161  -3.8021  -3.8015
    -3.7997  -3.7993  -3.7694  -3.7688  -3.7350  -3.7346  -3.6106  -3.6104
    -3.6104  -3.6100  -3.3092  -3.3089  -3.2759  -3.2756  -3.2008  -3.2002
    -3.0939  -3.0937  -3.0706  -3.0703  -2.9508  -2.9503  -2.9370  -2.9369
    -2.8894  -2.8892  -2.8881  -2.8881  -2.8282  -2.8276  -2.7782  -2.7778
    -2.7302  -2.7298  -2.6912  -2.6911  -2.6908  -2.6908  -2.6432  -2.6432
    -2.5791  -2.5787  -2.5524  -2.5523  -2.4496  -2.4491  -2.4341  -2.4338
    -2.4300  -2.4298  -2.3494  -2.3494  -2.3211  -2.3209  -2.2744  -2.2742
    -2.2367  -2.2366  -2.2362  -2.2358  -2.1909  -2.1906  -2.1649  -2.1648
    -2.1581  -2.1579  -2.1318  -2.1316  -2.0976  -2.0975  -1.9883  -1.9879
    -1.9598  -1.9596  -1.9589  -1.9589  -1.9541  -1.9537  -1.9344  -1.9340
    -1.7896  -1.7893  -1.7510  -1.7510  -1.6913  -1.6911  -1.6458  -1.6458
    -1.5480  -1.5476  -1.5376  -1.5373  -1.4979  -1.4979  -1.4247  -1.4247
    -1.3506  -1.3506  -1.3059  -1.3058  -1.2963  -1.2963  -1.2757  -1.2753
    -1.2333  -1.2329  -1.1973  -1.1971  -1.1696  -1.1693  -1.1367  -1.1366
    -1.1267  -1.1263  -1.1143  -1.1143  -1.1124  -1.1121  -1.0939  -1.0937
    -1.0636  -1.0635  -1.0576  -1.0572  -1.0153  -1.0152  -1.0034  -1.0033
    -0.9894  -0.9892  -0.9354  -0.9352  -0.9129  -0.9128  -0.8470  -0.8468
    -0.7790  -0.7790  -0.7607  -0.7606  -0.7511  -0.7510  -0.6527  -0.6526
    -0.6424  -0.6423  -0.6043  -0.6040  -0.5991  -0.5989  -0.5833  -0.5832
    -0.5810  -0.5810  -0.5631  -0.5628  -0.5456  -0.5455  -0.5438  -0.5436
    -0.5314  -0.5311  -0.5201  -0.5201  -0.4563  -0.4560  -0.4485  -0.4482
    -0.4421  -0.4420  -0.4163  -0.4161  -0.3959  -0.3955  -0.3944  -0.3943
    -0.3883  -0.3882  -0.3365  -0.3362  -0.3145  -0.3141  -0.3058  -0.3055
    -0.2907  -0.2906  -0.2734  -0.2731  -0.2621  -0.2619  -0.2551  -0.2549
    -0.2273  -0.2271  -0.2067  -0.2066  -0.1992  -0.1988  -0.1910  -0.1906
    -0.1609  -0.1607  -0.1422  -0.1422  -0.1316  -0.1315  -0.1181  -0.1181
    -0.0913  -0.0912   0.0218   0.0220   0.0221   0.0222   0.0593   0.0594
     0.0969   0.0971   0.1151   0.1153   0.1243   0.1247   0.1391   0.1392
     0.1597   0.1601   0.2840   0.2843   0.3393   0.3393   0.3919   0.3922
     0.4141   0.4141   0.4171   0.4173   0.4222   0.4225   0.4309   0.4309
     0.5403   0.5406   0.5598   0.5601   0.6097   0.6099   1.2456   1.2460
     1.3167   1.3170   1.5853   1.5858   1.6985   1.6985   1.8339   1.8344
     2.4075   2.4076   2.4174   2.4178   3.1396   3.1399   3.3755   3.3758
     3.5942   3.5946   3.7298   3.7302   3.7634   3.7636   3.8586   3.8587
     3.8990   3.8995   3.9773   3.9776   4.2594   4.2595   4.7825   4.7825
     4.8634   4.8635   5.3406   5.3408   5.5445   5.5447   5.6117   5.6118
     5.7614   5.7616   5.8507   5.8509   5.8862   5.8864   5.9945   5.9946
     6.0890   6.0892   6.0907   6.0907   6.1325   6.1330   6.2998   6.2999
     6.3015   6.3016   6.3659   6.3660   6.8350   6.8351   7.1149   7.1151
     7.1640   7.1642   7.2377   7.2378   7.4051   7.4053   7.4304   7.4305
     7.6235   7.6237   7.6241   7.6243   7.9629   7.9630   8.2176   8.2183

          k =-0.5000 0.0000 0.0000 (141820 PWs)   bands (ev):

  -111.0200-111.0198-111.0195-111.0192-111.0191-111.0191-111.0191-111.0190
  -111.0190-111.0186-111.0184-111.0181-110.6141-110.6139-110.6137-110.6134
  -110.6134-110.6134-110.6134-110.6133-110.6133-110.6130-110.6128-110.6126
   -68.4204 -68.4201 -68.4199 -68.4194 -68.4194 -68.4194 -68.4193 -68.4193
   -68.4192 -68.4188 -68.4188 -68.4188 -68.4185 -68.4183 -68.4180 -68.4179
   -68.4176 -68.4174 -68.4166 -68.4165 -68.4164 -68.4164 -68.4146 -68.4146
   -68.4141 -68.4141 -68.4122 -68.4122 -68.4121 -68.4121 -68.4113 -68.4111
   -68.4108 -68.4106 -68.4098 -68.4098 -68.0540 -68.0539 -68.0533 -68.0531
   -68.0526 -68.0524 -68.0517 -68.0517 -68.0516 -68.0516 -68.0498 -68.0498
   -68.0492 -68.0491 -68.0474 -68.0474 -68.0473 -68.0473 -68.0466 -68.0464
   -68.0459 -68.0457 -68.0450 -68.0450 -67.9809 -67.9807 -67.9805 -67.9801
   -67.9801 -67.9800 -67.9800 -67.9800 -67.9799 -67.9796 -67.9793 -67.9791
   -49.0139 -49.0139 -49.0003 -49.0002 -48.9991 -48.9989 -48.9895 -48.9895
   -48.9893 -48.9893 -48.9655 -48.9653 -48.9653 -48.9653 -48.9648 -48.9648
   -48.9587 -48.9583 -48.9581 -48.9581 -48.9580 -48.9580 -48.9577 -48.9573
   -48.9514 -48.9512 -48.9409 -48.9409 -48.9408 -48.9408 -48.9303 -48.9301
   -48.9290 -48.9288 -48.9169 -48.9169 -48.4512 -48.4512 -48.4382 -48.4381
   -48.4366 -48.4365 -48.4271 -48.4271 -48.4270 -48.4270 -48.4041 -48.4041
   -48.4018 -48.4018 -48.3791 -48.3791 -48.3790 -48.3790 -48.3686 -48.3685
   -48.3670 -48.3669 -48.3553 -48.3553 -48.2725 -48.2724 -48.2660 -48.2657
   -48.2656 -48.2655 -48.2655 -48.2655 -48.2653 -48.2650 -48.2589 -48.2588
    -5.9596  -5.9594  -4.2876  -4.2876  -4.1619  -4.1617  -4.1617  -4.1615
    -4.0028  -4.0027  -3.9745  -3.9745  -3.9164  -3.9163  -3.5662  -3.5662
    -3.3782  -3.3781  -3.3781  -3.3780  -3.3568  -3.3566  -3.1668  -3.1668
    -3.1068  -3.1066  -2.9714  -2.9712  -2.8886  -2.8884  -2.8642  -2.8641
    -2.7818  -2.7818  -2.7563  -2.7563  -2.7562  -2.7562  -2.7410  -2.7410
    -2.6624  -2.6624  -2.6154  -2.6153  -2.6152  -2.6152  -2.5908  -2.5908
    -2.5817  -2.5816  -2.5614  -2.5613  -2.4792  -2.4791  -2.4331  -2.4331
    -2.4172  -2.4171  -2.4171  -2.4171  -2.3961  -2.3961  -2.3515  -2.3515
    -2.3251  -2.3251  -2.3251  -2.3250  -2.2402  -2.2401  -2.2261  -2.2261
    -2.2169  -2.2167  -2.1943  -2.1942  -2.1942  -2.1941  -2.1710  -2.1710
    -2.0074  -2.0074  -1.9104  -1.9104  -1.8312  -1.8311  -1.7699  -1.7699
    -1.7583  -1.7582  -1.7582  -1.7581  -1.6746  -1.6744  -1.6417  -1.6417
    -1.6341  -1.6340  -1.6081  -1.6081  -1.5420  -1.5420  -1.5420  -1.5420
    -1.5003  -1.5003  -1.4272  -1.4271  -1.4208  -1.4207  -1.3755  -1.3755
    -1.3212  -1.3212  -1.3211  -1.3211  -1.2538  -1.2538  -1.2204  -1.2203
    -1.1350  -1.1350  -1.1309  -1.1308  -1.1307  -1.1307  -1.1120  -1.1120
    -1.0882  -1.0882  -0.9845  -0.9845  -0.9265  -0.9265  -0.9161  -0.9161
    -0.9000  -0.9000  -0.8990  -0.8989  -0.8989  -0.8989  -0.8648  -0.8648
    -0.8046  -0.8045  -0.8045  -0.8045  -0.6752  -0.6752  -0.6161  -0.6161
    -0.6161  -0.6161  -0.5986  -0.5984  -0.5766  -0.5765  -0.5744  -0.5744
    -0.5621  -0.5620  -0.5014  -0.5014  -0.4988  -0.4988  -0.4987  -0.4987
    -0.4462  -0.4462  -0.4376  -0.4375  -0.4271  -0.4270  -0.4175  -0.4175
    -0.4071  -0.4069  -0.3977  -0.3977  -0.3878  -0.3877  -0.3626  -0.3626
    -0.3626  -0.3626  -0.3610  -0.3609  -0.3261  -0.3261  -0.3114  -0.3112
    -0.3094  -0.3094  -0.3094  -0.3094  -0.2650  -0.2649  -0.2448  -0.2448
    -0.2057  -0.2057  -0.1826  -0.1826  -0.1750  -0.1750  -0.1630  -0.1630
    -0.1630  -0.1630  -0.0918  -0.0918  -0.0375  -0.0375   0.0028   0.0028
     0.0028   0.0028   0.0262   0.0263   0.0894   0.0894   0.1499   0.1500
     0.1587   0.1587   0.1599   0.1599   0.1599   0.1600   0.2102   0.2103
     0.3147   0.3148   0.3293   0.3293   0.3297   0.3298   0.3413   0.3413
     0.3413   0.3414   0.3949   0.3950   0.4625   0.4625   0.4794   0.4794
     0.5929   0.5930   0.5954   0.5955   0.9453   0.9453   0.9695   0.9696
     0.9952   0.9953   0.9953   0.9954   1.7998   1.7998   1.8876   1.8876
     1.8973   1.8974   2.0083   2.0083   2.9789   2.9789   3.0187   3.0188
     3.0188   3.0189   3.1957   3.1958   3.7081   3.7082   4.1145   4.1145
     4.3399   4.3399   4.7456   4.7456   4.7457   4.7458   4.9826   4.9826
     5.1221   5.1221   5.3029   5.3029   5.3146   5.3147   5.3147   5.3148
     5.4882   5.4883   5.5312   5.5312   6.4373   6.4373   6.5288   6.5288
     6.5289   6.5289   6.5592   6.5594   6.7307   6.7308   6.7509   6.7510
     6.8088   6.8088   6.8673   6.8673   7.1641   7.1641   7.1642   7.1642
     7.3869   7.3870   7.4154   7.4154   7.5285   7.5287   7.6004   7.6004
     7.6005   7.6005   7.7267   7.7268   7.7268   7.7268   7.8160   7.8161

          k =-0.5000 0.3750 0.0000 (141732 PWs)   bands (ev):

  -111.0200-111.0198-111.0195-111.0192-111.0191-111.0191-111.0191-111.0190
  -111.0189-111.0186-111.0184-111.0181-110.6141-110.6139-110.6137-110.6135
  -110.6134-110.6134-110.6133-110.6133-110.6132-110.6130-110.6128-110.6126
   -68.4204 -68.4201 -68.4199 -68.4195 -68.4194 -68.4194 -68.4193 -68.4192
   -68.4191 -68.4188 -68.4185 -68.4185 -68.4185 -68.4183 -68.4183 -68.4183
   -68.4177 -68.4177 -68.4164 -68.4164 -68.4160 -68.4160 -68.4151 -68.4151
   -68.4135 -68.4135 -68.4126 -68.4126 -68.4122 -68.4122 -68.4109 -68.4109
   -68.4104 -68.4103 -68.4101 -68.4101 -68.0536 -68.0536 -68.0535 -68.0534
   -68.0529 -68.0529 -68.0516 -68.0516 -68.0512 -68.0512 -68.0503 -68.0503
   -68.0487 -68.0487 -68.0478 -68.0478 -68.0474 -68.0474 -68.0461 -68.0461
   -68.0455 -68.0455 -68.0454 -68.0454 -67.9808 -67.9807 -67.9804 -67.9802
   -67.9801 -67.9800 -67.9800 -67.9799 -67.9798 -67.9796 -67.9793 -67.9792
   -49.0102 -49.0102 -49.0063 -49.0063 -49.0009 -49.0008 -48.9878 -48.9878
   -48.9837 -48.9837 -48.9741 -48.9741 -48.9649 -48.9647 -48.9609 -48.9607
   -48.9587 -48.9581 -48.9579 -48.9573 -48.9561 -48.9561 -48.9555 -48.9554
   -48.9519 -48.9517 -48.9466 -48.9466 -48.9417 -48.9417 -48.9292 -48.9292
   -48.9230 -48.9230 -48.9206 -48.9206 -48.4476 -48.4476 -48.4440 -48.4440
   -48.4384 -48.4384 -48.4256 -48.4256 -48.4214 -48.4214 -48.4119 -48.4119
   -48.3942 -48.3942 -48.3846 -48.3846 -48.3797 -48.3797 -48.3674 -48.3674
   -48.3612 -48.3612 -48.3589 -48.3589 -48.2720 -48.2719 -48.2682 -48.2681
   -48.2660 -48.2655 -48.2654 -48.2650 -48.2630 -48.2629 -48.2594 -48.2593
    -5.8223  -5.8222  -4.8258  -4.8256  -4.2129  -4.2128  -3.9736  -3.9736
    -3.9393  -3.9391  -3.8438  -3.8436  -3.7149  -3.7148  -3.5741  -3.5740
    -3.5587  -3.5587  -3.3076  -3.3076  -3.3048  -3.3046  -3.2424  -3.2423
    -3.0859  -3.0859  -3.0430  -3.0428  -2.9255  -2.9254  -2.8829  -2.8829
    -2.8611  -2.8610  -2.7701  -2.7699  -2.7627  -2.7627  -2.7511  -2.7510
    -2.7101  -2.7101  -2.6805  -2.6805  -2.6619  -2.6619  -2.6416  -2.6416
    -2.5814  -2.5813  -2.5476  -2.5475  -2.5115  -2.5114  -2.4715  -2.4714
    -2.4330  -2.4329  -2.3359  -2.3359  -2.3271  -2.3271  -2.2656  -2.2656
    -2.2526  -2.2526  -2.2416  -2.2416  -2.2368  -2.2367  -2.2069  -2.2068
    -2.2032  -2.2032  -2.1456  -2.1456  -2.1130  -2.1129  -2.1091  -2.1091
    -2.0994  -2.0994  -1.9607  -1.9605  -1.8005  -1.8004  -1.7591  -1.7591
    -1.7157  -1.7156  -1.6987  -1.6987  -1.6718  -1.6717  -1.6684  -1.6684
    -1.6595  -1.6594  -1.6236  -1.6235  -1.5347  -1.5347  -1.5233  -1.5233
    -1.5184  -1.5183  -1.4033  -1.4033  -1.3703  -1.3703  -1.3653  -1.3652
    -1.2928  -1.2927  -1.2417  -1.2417  -1.2050  -1.2050  -1.1932  -1.1932
    -1.1364  -1.1362  -1.1361  -1.1361  -1.1058  -1.1057  -1.0531  -1.0530
    -1.0434  -1.0433  -1.0119  -1.0118  -1.0115  -1.0115  -0.9970  -0.9970
    -0.9190  -0.9189  -0.9027  -0.9027  -0.8317  -0.8317  -0.8208  -0.8208
    -0.8110  -0.8110  -0.7295  -0.7295  -0.6760  -0.6760  -0.6698  -0.6698
    -0.6563  -0.6563  -0.6293  -0.6293  -0.6248  -0.6247  -0.5783  -0.5783
    -0.5709  -0.5708  -0.5548  -0.5547  -0.5323  -0.5323  -0.4814  -0.4814
    -0.4794  -0.4793  -0.4705  -0.4705  -0.4576  -0.4576  -0.4567  -0.4567
    -0.3892  -0.3891  -0.3843  -0.3842  -0.3757  -0.3757  -0.3672  -0.3672
    -0.3631  -0.3630  -0.3624  -0.3624  -0.3365  -0.3364  -0.3287  -0.3287
    -0.3009  -0.3009  -0.2926  -0.2925  -0.2918  -0.2918  -0.2574  -0.2574
    -0.2414  -0.2413  -0.1992  -0.1992  -0.1921  -0.1921  -0.1532  -0.1531
    -0.0782  -0.0782  -0.0511  -0.0511  -0.0190  -0.0189  -0.0145  -0.0145
     0.0240   0.0241   0.0396   0.0396   0.0420   0.0421   0.0747   0.0747
     0.0827   0.0828   0.0843   0.0843   0.1249   0.1249   0.1617   0.1618
     0.2495   0.2495   0.3349   0.3350   0.3368   0.3368   0.3381   0.3382
     0.3913   0.3914   0.4398   0.4398   0.4575   0.4575   0.4757   0.4757
     0.4895   0.4895   0.5214   0.5215   0.6072   0.6073   0.9739   0.9739
     1.0547   1.0548   1.2567   1.2567   2.0641   2.0642   2.1152   2.1154
     2.2078   2.2079   2.4345   2.4346   2.7753   2.7753   2.9410   2.9411
     3.0028   3.0028   3.3303   3.3304   3.8541   3.8542   4.2024   4.2024
     4.2333   4.2334   4.3995   4.3996   4.5080   4.5081   5.1156   5.1156
     5.2039   5.2041   5.2107   5.2107   5.3973   5.3973   5.4549   5.4549
     5.5407   5.5407   5.6232   5.6232   5.6633   5.6634   5.8486   5.8487
     6.1673   6.1673   6.5152   6.5153   6.5877   6.5877   6.6469   6.6469
     6.7148   6.7149   6.8733   6.8734   6.8741   6.8741   6.9404   6.9404
     7.1990   7.1991   7.5145   7.5146   7.5197   7.5197   7.5784   7.5785
     7.6853   7.6853   7.7353   7.7353   7.9828   7.9829   8.1304   8.1304

          k =-0.5000-0.7500 0.0000 (141740 PWs)   bands (ev):

  -111.0200-111.0198-111.0195-111.0192-111.0191-111.0191-111.0191-111.0190
  -111.0189-111.0186-111.0184-111.0181-110.6141-110.6139-110.6137-110.6135
  -110.6134-110.6134-110.6133-110.6133-110.6132-110.6130-110.6128-110.6126
   -68.4203 -68.4201 -68.4199 -68.4196 -68.4195 -68.4194 -68.4194 -68.4192
   -68.4191 -68.4188 -68.4186 -68.4184 -68.4183 -68.4183 -68.4183 -68.4182
   -68.4178 -68.4178 -68.4172 -68.4171 -68.4151 -68.4151 -68.4150 -68.4150
   -68.4137 -68.4136 -68.4135 -68.4135 -68.4115 -68.4114 -68.4109 -68.4108
   -68.4104 -68.4104 -68.4103 -68.4102 -68.0535 -68.0535 -68.0534 -68.0534
   -68.0529 -68.0528 -68.0524 -68.0524 -68.0503 -68.0503 -68.0502 -68.0501
   -68.0489 -68.0488 -68.0487 -68.0487 -68.0466 -68.0466 -68.0461 -68.0461
   -68.0456 -68.0456 -68.0455 -68.0455 -67.9808 -67.9807 -67.9804 -67.9803
   -67.9802 -67.9800 -67.9800 -67.9798 -67.9797 -67.9796 -67.9794 -67.9792
   -49.0068 -49.0068 -49.0067 -49.0067 -48.9998 -48.9998 -48.9992 -48.9992
   -48.9725 -48.9725 -48.9725 -48.9725 -48.9636 -48.9634 -48.9629 -48.9627
   -48.9587 -48.9580 -48.9580 -48.9574 -48.9573 -48.9573 -48.9573 -48.9573
   -48.9537 -48.9535 -48.9530 -48.9528 -48.9313 -48.9313 -48.9306 -48.9306
   -48.9229 -48.9229 -48.9229 -48.9229 -48.4443 -48.4443 -48.4443 -48.4443
   -48.4373 -48.4373 -48.4368 -48.4368 -48.4105 -48.4105 -48.4105 -48.4105
   -48.3952 -48.3952 -48.3952 -48.3952 -48.3694 -48.3694 -48.3689 -48.3689
   -48.3612 -48.3612 -48.3611 -48.3611 -48.2707 -48.2706 -48.2702 -48.2701
   -48.2660 -48.2655 -48.2655 -48.2650 -48.2611 -48.2610 -48.2606 -48.2605
    -5.4261  -5.4260  -5.4254  -5.4252  -4.0530  -4.0528  -4.0525  -4.0523
    -3.7757  -3.7755  -3.7752  -3.7750  -3.6839  -3.6837  -3.6833  -3.6832
    -3.4933  -3.4931  -3.4931  -3.4930  -3.2143  -3.2143  -3.2143  -3.2143
    -3.1467  -3.1466  -3.1462  -3.1461  -2.9025  -2.9024  -2.9021  -2.9020
    -2.8705  -2.8704  -2.8703  -2.8702  -2.7945  -2.7944  -2.7940  -2.7938
    -2.7430  -2.7430  -2.7429  -2.7429  -2.6191  -2.6191  -2.6189  -2.6189
    -2.5916  -2.5915  -2.5913  -2.5912  -2.4026  -2.4024  -2.4023  -2.4022
    -2.3947  -2.3945  -2.3945  -2.3943  -2.3196  -2.3195  -2.3194  -2.3193
    -2.2732  -2.2730  -2.2727  -2.2725  -2.1830  -2.1827  -2.1826  -2.1824
    -2.1160  -2.1160  -2.1159  -2.1159  -1.9980  -1.9980  -1.9979  -1.9979
    -1.9064  -1.9064  -1.9061  -1.9061  -1.8624  -1.8624  -1.8623  -1.8623
    -1.8525  -1.8524  -1.8522  -1.8521  -1.7562  -1.7561  -1.7558  -1.7557
    -1.5729  -1.5729  -1.5729  -1.5728  -1.4379  -1.4378  -1.4377  -1.4376
    -1.4054  -1.4054  -1.4052  -1.4051  -1.3149  -1.3149  -1.3149  -1.3148
    -1.1839  -1.1839  -1.1837  -1.1836  -1.1532  -1.1531  -1.1528  -1.1527
    -1.1337  -1.1336  -1.1336  -1.1335  -1.0711  -1.0710  -1.0708  -1.0707
    -1.0638  -1.0638  -1.0637  -1.0637  -1.0023  -1.0023  -1.0022  -1.0022
    -0.9374  -0.9373  -0.9372  -0.9371  -0.8441  -0.8440  -0.8440  -0.8439
    -0.7300  -0.7299  -0.7299  -0.7299  -0.6793  -0.6793  -0.6792  -0.6792
    -0.6435  -0.6435  -0.6434  -0.6434  -0.6127  -0.6126  -0.6126  -0.6125
    -0.5984  -0.5983  -0.5982  -0.5981  -0.5641  -0.5641  -0.5641  -0.5640
    -0.5260  -0.5260  -0.5259  -0.5259  -0.5048  -0.5048  -0.5048  -0.5048
    -0.4146  -0.4146  -0.4145  -0.4145  -0.3957  -0.3957  -0.3955  -0.3954
    -0.3620  -0.3620  -0.3620  -0.3619  -0.2982  -0.2981  -0.2980  -0.2979
    -0.2824  -0.2823  -0.2821  -0.2820  -0.2320  -0.2320  -0.2318  -0.2318
    -0.2026  -0.2025  -0.2025  -0.2024  -0.1700  -0.1700  -0.1698  -0.1698
    -0.1416  -0.1415  -0.1414  -0.1414  -0.1248  -0.1247  -0.1246  -0.1245
    -0.0519  -0.0519  -0.0518  -0.0518   0.0411   0.0411   0.0415   0.0415
     0.1007   0.1007   0.1010   0.1010   0.1379   0.1381   0.1381   0.1382
     0.2687   0.2687   0.2688   0.2688   0.3421   0.3422   0.3424   0.3425
     0.3537   0.3538   0.3538   0.3538   0.4288   0.4289   0.4289   0.4289
     0.5054   0.5054   0.5057   0.5057   1.0580   1.0581   1.0585   1.0585
     1.3977   1.3978   1.3981   1.3982   1.5619   1.5620   1.5622   1.5623
     3.0226   3.0227   3.0230   3.0231   3.0406   3.0406   3.0411   3.0411
     3.5567   3.5568   3.5569   3.5571   3.6904   3.6906   3.6907   3.6908
     3.7385   3.7386   3.7389   3.7390   4.9479   4.9480   4.9485   4.9485
     4.9916   4.9917   4.9917   4.9918   5.5075   5.5076   5.5077   5.5077
     5.6789   5.6790   5.6790   5.6791   5.8322   5.8322   5.8322   5.8323
     6.0186   6.0186   6.0188   6.0188   6.0570   6.0571   6.0572   6.0572
     6.9884   6.9884   6.9887   6.9887   7.0816   7.0817   7.0817   7.0818
     7.2940   7.2941   7.2942   7.2942   7.3671   7.3672   7.3673   7.3673
     7.3985   7.3986   7.3987   7.3987   7.7807   7.7808   7.7809   7.7809

     the Fermi energy is     0.6160 ev

!    total energy              =  -14458.51604170 Ry
     estimated scf accuracy    <          1.5E-11 Ry
     smearing contrib. (-TS)   =       0.02365902 Ry
     internal energy E=F+TS    =  -14458.53970072 Ry

     The total energy is F=E-TS. E is the sum of the following terms:
     one-electron contribution = -114677.09656604 Ry
     hartree contribution      =   57457.38931219 Ry
     xc contribution           =   -1683.33833187 Ry
     ewald contribution        =   44444.50588500 Ry

     convergence has been achieved in  14 iterations

     negative rho (up, down):  1.880E+00 0.000E+00

     Forces acting on atoms (cartesian axes, Ry/au):

     atom    1 type  1   force =     0.00000000    0.00000000   -0.00000298
     atom    2 type  1   force =    -0.00000053    0.00000005   -0.00000405
     atom    3 type  2   force =     0.00000000   -0.00000002    0.00001164
     atom    4 type  2   force =     0.00000033    0.00000000    0.00001176
     atom    5 type  1   force =     0.00000000    0.00000000   -0.00000351
     atom    6 type  1   force =    -0.00000053   -0.00000005   -0.00000405
     atom    7 type  2   force =     0.00000000    0.00000002    0.00001164
     atom    8 type  2   force =     0.00000039    0.00000000    0.00001146
     atom    9 type  1   force =    -0.00000012    0.00000000   -0.00000441
     atom   10 type  1   force =     0.00000000    0.00000057   -0.00000420
     atom   11 type  2   force =     0.00000058    0.00000003    0.00001150
     atom   12 type  2   force =     0.00000000    0.00000000    0.00001115
     atom   13 type  1   force =     0.00000049    0.00000000   -0.00000415
     atom   14 type  1   force =     0.00000000   -0.00000057   -0.00000420
     atom   15 type  2   force =     0.00000058   -0.00000003    0.00001150
     atom   16 type  2   force =     0.00000000    0.00000000    0.00001163
     atom   17 type  1   force =     0.00000012    0.00000000   -0.00000441
     atom   18 type  1   force =     0.00000053    0.00000005   -0.00000405
     atom   19 type  2   force =    -0.00000058    0.00000003    0.00001150
     atom   20 type  2   force =    -0.00000033    0.00000000    0.00001176
     atom   21 type  1   force =    -0.00000049    0.00000000   -0.00000415
     atom   22 type  1   force =     0.00000053   -0.00000005   -0.00000405
     atom   23 type  2   force =    -0.00000058   -0.00000003    0.00001150
     atom   24 type  2   force =    -0.00000039    0.00000000    0.00001146
     atom   25 type  1   force =     0.00000000    0.00000000    0.00000399
     atom   26 type  1   force =    -0.00000195   -0.00000037    0.00000256
     atom   27 type  2   force =     0.00000000   -0.00000011   -0.00001166
     atom   28 type  2   force =    -0.00000005    0.00000000   -0.00001110
     atom   29 type  1   force =     0.00000000    0.00000000    0.00000364
     atom   30 type  1   force =    -0.00000195    0.00000037    0.00000256
     atom   31 type  2   force =     0.00000000    0.00000011   -0.00001166
     atom   32 type  2   force =     0.00000030    0.00000000   -0.00001064
     atom   33 type  1   force =    -0.00000079    0.00000000    0.00000264
     atom   34 type  1   force =     0.00000000    0.00000153    0.00000343
     atom   35 type  2   force =     0.00000043   -0.00000001   -0.00000999
     atom   36 type  2   force =     0.00000000    0.00000000   -0.00001024
     atom   37 type  1   force =     0.00000060    0.00000000    0.00000313
     atom   38 type  1   force =     0.00000000   -0.00000153    0.00000343
     atom   39 type  2   force =     0.00000043    0.00000001   -0.00000999
     atom   40 type  2   force =     0.00000000    0.00000000   -0.00000954
     atom   41 type  1   force =     0.00000079    0.00000000    0.00000264
     atom   42 type  1   force =     0.00000195   -0.00000037    0.00000256
     atom   43 type  2   force =    -0.00000043   -0.00000001   -0.00000999
     atom   44 type  2   force =     0.00000005    0.00000000   -0.00001110
     atom   45 type  1   force =    -0.00000060    0.00000000    0.00000313
     atom   46 type  1   force =     0.00000195    0.00000037    0.00000256
     atom   47 type  2   force =    -0.00000043    0.00000001   -0.00000999
     atom   48 type  2   force =    -0.00000030    0.00000000   -0.00001064

     Total force =     0.000057     Total SCF correction =     0.000035
     SCF correction compared to forces is large: reduce conv_thr to get better values


     Computing stress (Cartesian axis) and pressure


     negative rho (up, down):  1.880E+00 0.000E+00
          total   stress  (Ry/bohr**3)                   (kbar)     P=       -8.81
  -0.00008820   0.00000000   0.00000000          -12.97        0.00        0.00
   0.00000000  -0.00008964   0.00000000            0.00      -13.19        0.00
   0.00000000   0.00000000  -0.00000173            0.00        0.00       -0.25


     number of scf cycles    =  14
     number of bfgs steps    =  13

     energy   old            =  -14458.5160415120 Ry
     energy   new            =  -14458.5160417001 Ry

     CASE: energy  _new < energy  _old

     small trust_radius: resetting bfgs history

     new trust radius        =       0.0000117596 bohr
     new conv_thr            =            1.9E-12 Ry


ATOMIC_POSITIONS (angstrom)
Cu            0.0000000000        0.0000000000        0.5243838319
Cu            2.1121283325        2.1121268676        0.5243806550
Pd            0.0000000000        2.1121256888        1.9870869416
Pd            2.1121265991        0.0000000000        1.9870852267
Cu            0.0000000000        4.2242543590        0.5243803618
Cu            2.1121283325        6.3363834914        0.5243806550
Pd            0.0000000000        6.3363846702        1.9870869416
Pd            2.1121232264        4.2242543590        1.9870911418
Cu            4.2242639310        0.0000000000        0.5243794524
Cu            6.3363823590        2.1121135880        0.5243843393
Pd            4.2242517427        2.1121242181        1.9870884089
Pd            6.3363823590        0.0000000000        1.9870990160
Cu            4.2242491438        4.2242543590        0.5243795647
Cu            6.3363823590        6.3363967709        0.5243843393
Pd            4.2242517427        6.3363861409        1.9870884089
Pd            6.3363823590        4.2242543590        1.9870772665
Cu            8.4484991460        0.0000000000        0.5243794524
Cu           10.5606363855        2.1121268676        0.5243806550
Pd            8.4485113343        2.1121242181        1.9870884089
Pd           10.5606331069        0.0000000000        1.9870852267
Cu            8.4485139332        4.2242543590        0.5243795647
Cu           10.5606363855        6.3363834914        0.5243806550
Pd            8.4485113343        6.3363861409        1.9870884089
Pd           10.5606414916        4.2242543590        1.9870911418
Cu            0.0000000000        0.0000000000        3.5168366934
Cu            2.1121234769        2.1121234771        3.5168408888
Pd            0.0000000000        2.1121228295        5.0177707407
Pd            2.1121214832        0.0000000000        5.0177663026
Cu            0.0000000000        4.2242543590        3.5168446243
Cu            2.1121234769        6.3363868819        3.5168408888
Pd            0.0000000000        6.3363875295        5.0177707407
Pd            2.1121292542        4.2242543590        5.0177643592
Cu            4.2242551871        0.0000000000        3.5168445655
Cu            6.3363823590        2.1121265846        3.5168389896
Pd            4.2242506356        2.1121291693        5.0177606766
Pd            6.3363823590        0.0000000000        5.0177645678
Cu            4.2242592843        4.2242543590        3.5168337544
Cu            6.3363823590        6.3363837744        3.5168389896
Pd            4.2242506356        6.3363811897        5.0177606766
Pd            6.3363823590        4.2242543590        5.0177588884
Cu            8.4485078899        0.0000000000        3.5168445655
Cu           10.5606412411        2.1121234771        3.5168408888
Pd            8.4485124414        2.1121291693        5.0177606766
Pd           10.5606382228        0.0000000000        5.0177663026
Cu            8.4485037927        4.2242543590        3.5168337544
Cu           10.5606412411        6.3363868819        3.5168408888
Pd            8.4485124414        6.3363811897        5.0177606766
Pd           10.5606354638        4.2242543590        5.0177643592



     Writing output data file /users/aafshar4/scratch/CuPd_rlx_1st_BBEF-vdW.save/
     NEW-OLD atomic charge density approx. for the potential

     negative rho (up, down):  1.880E+00 0.000E+00

     total cpu time spent up to now is     1713.4 secs

     Self-consistent Calculation

     iteration #  1     ecut=    60.00 Ry     beta= 0.30
     Davidson diagonalization with overlap
     ethr =  1.00E-06,  avg # of iterations =  1.3

     Threshold (ethr) on eigenvalues was too large:
     Diagonalizing with lowered threshold

     Davidson diagonalization with overlap
     ethr =  4.95E-13,  avg # of iterations =  4.2

     negative rho (up, down):  1.880E+00 0.000E+00

     total cpu time spent up to now is     2006.3 secs

     total energy              =  -14458.51604170 Ry
     estimated scf accuracy    <          4.0E-09 Ry

     iteration #  2     ecut=    60.00 Ry     beta= 0.30
     Davidson diagonalization with overlap
     ethr =  4.73E-13,  avg # of iterations =  2.3

     negative rho (up, down):  1.880E+00 0.000E+00

     total cpu time spent up to now is     2138.6 secs

     total energy              =  -14458.51604170 Ry
     estimated scf accuracy    <       0.00000016 Ry

     iteration #  3     ecut=    60.00 Ry     beta= 0.30
     Davidson diagonalization with overlap
     ethr =  4.73E-13,  avg # of iterations =  2.0

     negative rho (up, down):  1.880E+00 0.000E+00

     total cpu time spent up to now is     2259.7 secs

     total energy              =  -14458.51604170 Ry
     estimated scf accuracy    <          5.2E-09 Ry

     iteration #  4     ecut=    60.00 Ry     beta= 0.30
     Davidson diagonalization with overlap
     ethr =  4.73E-13,  avg # of iterations =  1.0

     negative rho (up, down):  1.880E+00 0.000E+00

     total cpu time spent up to now is     2359.8 secs

     total energy              =  -14458.51604170 Ry
     estimated scf accuracy    <          5.6E-10 Ry

     iteration #  5     ecut=    60.00 Ry     beta= 0.30
     Davidson diagonalization with overlap
     ethr =  1.00E-13,  avg # of iterations =  1.3

     negative rho (up, down):  1.880E+00 0.000E+00

     total cpu time spent up to now is     2463.9 secs

     total energy              =  -14458.51604170 Ry
     estimated scf accuracy    <          1.0E-09 Ry

     iteration #  6     ecut=    60.00 Ry     beta= 0.30
     Davidson diagonalization with overlap
     ethr =  1.00E-13,  avg # of iterations =  1.0

     negative rho (up, down):  1.880E+00 0.000E+00

     total cpu time spent up to now is     2563.4 secs

     total energy              =  -14458.51604170 Ry
     estimated scf accuracy    <          4.5E-10 Ry

     iteration #  7     ecut=    60.00 Ry     beta= 0.30
     Davidson diagonalization with overlap
     ethr =  1.00E-13,  avg # of iterations =  1.2

     negative rho (up, down):  1.880E+00 0.000E+00

     total cpu time spent up to now is     2666.4 secs

     total energy              =  -14458.51604170 Ry
     estimated scf accuracy    <          7.6E-11 Ry

     iteration #  8     ecut=    60.00 Ry     beta= 0.30
     Davidson diagonalization with overlap
     ethr =  1.00E-13,  avg # of iterations =  1.0

     negative rho (up, down):  1.880E+00 0.000E+00

     total cpu time spent up to now is     2766.0 secs

     total energy              =  -14458.51604170 Ry
     estimated scf accuracy    <          1.6E-11 Ry

     iteration #  9     ecut=    60.00 Ry     beta= 0.30
     Davidson diagonalization with overlap
     ethr =  1.00E-13,  avg # of iterations =  1.0

     negative rho (up, down):  1.880E+00 0.000E+00

     total cpu time spent up to now is     2865.5 secs

     total energy              =  -14458.51604170 Ry
     estimated scf accuracy    <          1.6E-11 Ry

     iteration # 10     ecut=    60.00 Ry     beta= 0.30
     Davidson diagonalization with overlap
     ethr =  1.00E-13,  avg # of iterations =  1.0

     negative rho (up, down):  1.880E+00 0.000E+00

     total cpu time spent up to now is     2965.0 secs

     End of self-consistent calculation

          k = 0.0000 0.0000 0.0000 (141809 PWs)   bands (ev):

  -111.0200-111.0198-111.0195-111.0192-111.0191-111.0191-111.0191-111.0190
  -111.0190-111.0186-111.0184-111.0181-110.6141-110.6139-110.6137-110.6134
  -110.6134-110.6134-110.6134-110.6133-110.6133-110.6130-110.6128-110.6126
   -68.4204 -68.4201 -68.4199 -68.4195 -68.4194 -68.4194 -68.4193 -68.4193
   -68.4192 -68.4188 -68.4186 -68.4184 -68.4183 -68.4183 -68.4183 -68.4182
   -68.4181 -68.4179 -68.4165 -68.4164 -68.4160 -68.4159 -68.4146 -68.4146
   -68.4141 -68.4141 -68.4128 -68.4126 -68.4123 -68.4121 -68.4107 -68.4105
   -68.4105 -68.4103 -68.4103 -68.4102 -68.0537 -68.0535 -68.0534 -68.0533
   -68.0533 -68.0530 -68.0517 -68.0517 -68.0511 -68.0510 -68.0498 -68.0498
   -68.0491 -68.0491 -68.0480 -68.0479 -68.0473 -68.0472 -68.0460 -68.0457
   -68.0457 -68.0456 -68.0455 -68.0453 -67.9809 -67.9806 -67.9805 -67.9801
   -67.9801 -67.9800 -67.9800 -67.9800 -67.9799 -67.9795 -67.9794 -67.9791
   -49.0074 -49.0074 -49.0072 -49.0072 -49.0056 -49.0041 -48.9855 -48.9854
   -48.9848 -48.9847 -48.9665 -48.9663 -48.9663 -48.9638 -48.9638 -48.9623
   -48.9622 -48.9583 -48.9582 -48.9580 -48.9579 -48.9579 -48.9577 -48.9542
   -48.9541 -48.9503 -48.9451 -48.9450 -48.9444 -48.9443 -48.9248 -48.9234
   -48.9234 -48.9232 -48.9232 -48.9232 -48.4448 -48.4448 -48.4447 -48.4447
   -48.4433 -48.4419 -48.4240 -48.4239 -48.4219 -48.4218 -48.4032 -48.4032
   -48.4028 -48.4028 -48.3838 -48.3837 -48.3817 -48.3817 -48.3629 -48.3617
   -48.3617 -48.3616 -48.3616 -48.3615 -48.2736 -48.2696 -48.2695 -48.2657
   -48.2656 -48.2655 -48.2655 -48.2654 -48.2653 -48.2617 -48.2616 -48.2578
    -6.2137  -5.2452  -5.2450  -4.2876  -4.2874  -4.1723  -4.0384  -3.9846
    -3.9846  -3.9845  -3.9844  -3.7495  -3.7494  -3.5806  -3.5805  -3.5490
    -3.5490  -3.5489  -3.5489  -3.4679  -3.2272  -3.1673  -3.1671  -3.0569
    -3.0568  -3.0318  -3.0317  -2.9385  -2.9131  -2.9122  -2.9018  -2.9018
    -2.9017  -2.9017  -2.8234  -2.8233  -2.7915  -2.7914  -2.7260  -2.7259
    -2.7144  -2.6623  -2.6623  -2.6562  -2.6340  -2.6339  -2.6339  -2.6338
    -2.5905  -2.5904  -2.5272  -2.4328  -2.4327  -2.3965  -2.3965  -2.3961
    -2.3961  -2.3891  -2.3891  -2.3535  -2.3535  -2.3355  -2.3354  -2.3354
    -2.3353  -2.2591  -2.2590  -2.2510  -2.2510  -2.2509  -2.2508  -2.1984
    -2.1983  -2.1709  -2.1708  -2.1498  -2.1497  -2.1497  -2.1497  -2.0831
    -2.0830  -1.9990  -1.9989  -1.9105  -1.9104  -1.8949  -1.8949  -1.8798
    -1.8798  -1.8249  -1.8248  -1.7700  -1.7699  -1.7588  -1.7277  -1.7276
    -1.7276  -1.7276  -1.7039  -1.7038  -1.6740  -1.6732  -1.5199  -1.5198
    -1.5004  -1.5004  -1.4493  -1.2720  -1.2719  -1.2450  -1.2450  -1.2358
    -1.2357  -1.2357  -1.2357  -1.2185  -1.1932  -1.1930  -1.1489  -1.1489
    -1.1350  -1.1350  -1.1276  -1.1276  -1.1275  -1.1275  -1.1104  -1.1103
    -1.0403  -1.0403  -1.0403  -1.0403  -0.9725  -0.9724  -0.9267  -0.9267
    -0.8892  -0.8891  -0.8650  -0.8650  -0.8627  -0.8626  -0.8626  -0.8626
    -0.8344  -0.7352  -0.7352  -0.7015  -0.7015  -0.7015  -0.7015  -0.6581
    -0.6581  -0.6581  -0.6580  -0.6318  -0.5883  -0.5882  -0.5660  -0.5310
    -0.5136  -0.5135  -0.5030  -0.5030  -0.4713  -0.4713  -0.4713  -0.4712
    -0.4471  -0.4470  -0.4470  -0.4469  -0.4468  -0.4467  -0.4461  -0.4461
    -0.4191  -0.4189  -0.4174  -0.4174  -0.4009  -0.4008  -0.4003  -0.3976
    -0.3976  -0.3943  -0.3566  -0.3565  -0.3259  -0.3259  -0.3065  -0.3009
    -0.3009  -0.2813  -0.2813  -0.2612  -0.2611  -0.2539  -0.2198  -0.2198
    -0.1825  -0.1825  -0.1793  -0.1793  -0.1792  -0.1792  -0.1750  -0.1750
    -0.1231  -0.0400  -0.0400  -0.0400  -0.0399  -0.0206  -0.0205  -0.0173
    -0.0173   0.0348   0.0349   0.0582   0.0583   0.0893   0.0893   0.1075
     0.1075   0.1472   0.2257   0.2258   0.2407   0.2408   0.2409   0.2409
     0.2652   0.3138   0.3138   0.3196   0.3197   0.3295   0.3295   0.3649
     0.3649   0.3672   0.3791   0.3791   0.3791   0.3791   0.4363   0.4363
     0.4363   0.4364   0.4553   0.4553   0.5080   0.7117   0.8545   0.9447
     0.9448   1.1634   1.1635   1.1635   1.1636   1.7442   1.7442   2.3914
     2.3914   2.7939   2.7939   2.7940   2.7941   2.9117   2.9451   2.9451
     2.9451   2.9452   2.9788   2.9789   3.0392   3.0394   4.0241   4.0241
     4.3923   4.3923   4.3924   4.3924   4.6303   4.6304   4.7352   5.0980
     5.0980   5.2386   5.2922   5.3029   5.3029   5.5321   5.5322   5.5322
     5.5322   5.6994   5.6996   6.1382   6.1384   6.2135   6.2137   6.2437
     6.2439   6.4038   6.4528   6.5700   6.7512   6.7513   6.8673   6.8673
     6.9026   6.9026   7.3248   7.3869   7.3869   7.4154   7.4154   7.4940
     7.4943   7.5302   7.5304   7.6154   7.6155   7.6576   7.6576   7.6577
     7.6577   7.8126   7.8128   7.8622   7.9481   7.9481   7.9482   7.9483

          k = 0.0000 0.3750 0.0000 (141761 PWs)   bands (ev):

  -111.0200-111.0198-111.0195-111.0192-111.0191-111.0191-111.0191-111.0190
  -111.0189-111.0186-111.0184-111.0181-110.6141-110.6139-110.6137-110.6135
  -110.6134-110.6134-110.6133-110.6133-110.6132-110.6130-110.6128-110.6126
   -68.4204 -68.4201 -68.4199 -68.4195 -68.4194 -68.4194 -68.4193 -68.4193
   -68.4191 -68.4188 -68.4187 -68.4187 -68.4186 -68.4183 -68.4182 -68.4178
   -68.4177 -68.4176 -68.4170 -68.4170 -68.4160 -68.4155 -68.4146 -68.4146
   -68.4141 -68.4141 -68.4132 -68.4126 -68.4116 -68.4116 -68.4110 -68.4109
   -68.4108 -68.4105 -68.4100 -68.4100 -68.0538 -68.0538 -68.0534 -68.0529
   -68.0528 -68.0527 -68.0522 -68.0522 -68.0513 -68.0506 -68.0497 -68.0497
   -68.0493 -68.0492 -68.0484 -68.0477 -68.0468 -68.0468 -68.0463 -68.0461
   -68.0461 -68.0456 -68.0452 -68.0452 -67.9808 -67.9806 -67.9805 -67.9802
   -67.9801 -67.9800 -67.9800 -67.9799 -67.9798 -67.9795 -67.9794 -67.9791
   -49.0118 -49.0117 -49.0027 -49.0011 -48.9997 -48.9997 -48.9963 -48.9963
   -48.9817 -48.9792 -48.9676 -48.9676 -48.9659 -48.9624 -48.9624 -48.9620
   -48.9619 -48.9613 -48.9595 -48.9594 -48.9565 -48.9564 -48.9551 -48.9544
   -48.9543 -48.9509 -48.9507 -48.9483 -48.9343 -48.9343 -48.9301 -48.9301
   -48.9280 -48.9263 -48.9187 -48.9187 -48.4492 -48.4492 -48.4403 -48.4390
   -48.4374 -48.4374 -48.4339 -48.4339 -48.4186 -48.4180 -48.4056 -48.4056
   -48.4003 -48.4003 -48.3878 -48.3872 -48.3725 -48.3725 -48.3683 -48.3683
   -48.3660 -48.3647 -48.3570 -48.3570 -48.2730 -48.2693 -48.2692 -48.2686
   -48.2670 -48.2669 -48.2640 -48.2639 -48.2626 -48.2620 -48.2619 -48.2584
    -6.0698  -5.1296  -5.1294  -5.0130  -4.3617  -4.3616  -4.0752  -3.9669
    -3.7945  -3.7908  -3.7908  -3.6940  -3.6940  -3.6893  -3.6892  -3.6191
    -3.6190  -3.4625  -3.4052  -3.2115  -3.2115  -3.1935  -3.1935  -3.1581
    -3.0701  -3.0052  -3.0051  -3.0022  -3.0021  -2.9897  -2.9897  -2.9538
    -2.9209  -2.9077  -2.8845  -2.8154  -2.8153  -2.7736  -2.7735  -2.7634
    -2.7562  -2.7375  -2.7375  -2.6803  -2.6307  -2.6307  -2.6174  -2.6142
    -2.5918  -2.5917  -2.5656  -2.5655  -2.4991  -2.3962  -2.3962  -2.3952
    -2.3542  -2.3515  -2.3514  -2.3372  -2.3206  -2.3206  -2.2882  -2.2881
    -2.2482  -2.2395  -2.2282  -2.2282  -2.2095  -2.2095  -2.1888  -2.1371
    -2.1370  -2.1302  -2.1302  -2.1259  -2.1219  -2.1218  -2.0677  -2.0677
    -2.0426  -2.0386  -2.0385  -2.0268  -2.0267  -1.9432  -1.9432  -1.9331
    -1.9246  -1.8944  -1.7961  -1.7961  -1.7702  -1.7197  -1.7077  -1.6490
    -1.6123  -1.6123  -1.5959  -1.5959  -1.5732  -1.5022  -1.4029  -1.4028
    -1.3939  -1.3938  -1.3583  -1.3563  -1.3256  -1.2836  -1.2836  -1.2558
    -1.2557  -1.2244  -1.1908  -1.1907  -1.1500  -1.1500  -1.1388  -1.1388
    -1.1282  -1.1232  -1.1222  -1.1093  -1.1088  -1.1088  -1.0693  -1.0692
    -1.0680  -1.0679  -1.0657  -1.0657  -1.0276  -1.0275  -0.9809  -0.9614
    -0.9614  -0.9511  -0.9510  -0.9488  -0.9354  -0.9354  -0.9296  -0.7833
    -0.7613  -0.7613  -0.7213  -0.7213  -0.6536  -0.6536  -0.6496  -0.6327
    -0.6326  -0.6128  -0.6104  -0.6104  -0.5914  -0.5914  -0.5684  -0.5684
    -0.5601  -0.5514  -0.5315  -0.5314  -0.5098  -0.5098  -0.4962  -0.4888
    -0.4827  -0.4827  -0.4556  -0.4556  -0.4449  -0.4449  -0.4417  -0.4417
    -0.4386  -0.4160  -0.4130  -0.4026  -0.4015  -0.3816  -0.3724  -0.3663
    -0.3663  -0.3650  -0.3432  -0.3432  -0.3235  -0.3235  -0.3234  -0.3224
    -0.3179  -0.3179  -0.3131  -0.2898  -0.2898  -0.2729  -0.2483  -0.2483
    -0.2392  -0.2247  -0.2247  -0.2120  -0.1870  -0.1869  -0.1706  -0.1706
    -0.1393  -0.1393  -0.0623  -0.0568  -0.0347  -0.0347  -0.0103  -0.0042
     0.0018   0.0018   0.0193   0.0266   0.0323   0.0323   0.0521   0.0521
     0.0965   0.0966   0.1040   0.1040   0.1537   0.1799   0.1799   0.2339
     0.2343   0.2454   0.2475   0.2475   0.2595   0.3143   0.3218   0.3331
     0.3483   0.3523   0.3523   0.3542   0.3542   0.4247   0.4247   0.4458
     0.5030   0.5030   0.5165   0.5166   0.6841   0.7296   0.7297   0.8554
     1.0080   1.0080   1.7771   1.7772   1.9756   2.0118   2.1934   2.1935
     2.3072   2.3181   2.3182   2.4902   2.4903   2.4974   2.4975   3.0716
[...]
   -48.9587 -48.9581 -48.9579 -48.9573 -48.9561 -48.9561 -48.9555 -48.9553
   -48.9519 -48.9517 -48.9466 -48.9466 -48.9417 -48.9417 -48.9292 -48.9292
   -48.9230 -48.9230 -48.9205 -48.9205 -48.4476 -48.4476 -48.4440 -48.4440
   -48.4384 -48.4384 -48.4256 -48.4256 -48.4214 -48.4214 -48.4119 -48.4119
   -48.3942 -48.3942 -48.3846 -48.3846 -48.3797 -48.3797 -48.3674 -48.3674
   -48.3612 -48.3612 -48.3589 -48.3589 -48.2720 -48.2719 -48.2682 -48.2681
   -48.2660 -48.2655 -48.2654 -48.2650 -48.2630 -48.2629 -48.2594 -48.2593
    -5.8224  -5.8222  -4.8258  -4.8256  -4.2129  -4.2128  -3.9736  -3.9736
    -3.9393  -3.9391  -3.8438  -3.8436  -3.7149  -3.7148  -3.5742  -3.5741
    -3.5587  -3.5587  -3.3076  -3.3076  -3.3048  -3.3046  -3.2424  -3.2423
    -3.0859  -3.0859  -3.0430  -3.0429  -2.9255  -2.9254  -2.8829  -2.8829
    -2.8612  -2.8610  -2.7701  -2.7700  -2.7627  -2.7627  -2.7511  -2.7510
    -2.7101  -2.7101  -2.6805  -2.6805  -2.6619  -2.6619  -2.6416  -2.6416
    -2.5814  -2.5813  -2.5476  -2.5475  -2.5115  -2.5114  -2.4715  -2.4714
    -2.4330  -2.4330  -2.3359  -2.3359  -2.3271  -2.3271  -2.2656  -2.2656
    -2.2526  -2.2526  -2.2416  -2.2416  -2.2368  -2.2367  -2.2069  -2.2068
    -2.2032  -2.2032  -2.1456  -2.1456  -2.1130  -2.1129  -2.1091  -2.1091
    -2.0994  -2.0994  -1.9607  -1.9605  -1.8005  -1.8004  -1.7591  -1.7591
    -1.7158  -1.7157  -1.6987  -1.6987  -1.6718  -1.6717  -1.6684  -1.6684
    -1.6595  -1.6594  -1.6236  -1.6235  -1.5347  -1.5347  -1.5233  -1.5233
    -1.5184  -1.5184  -1.4033  -1.4033  -1.3703  -1.3703  -1.3653  -1.3652
    -1.2928  -1.2927  -1.2417  -1.2417  -1.2050  -1.2050  -1.1932  -1.1932
    -1.1364  -1.1362  -1.1361  -1.1361  -1.1058  -1.1057  -1.0531  -1.0530
    -1.0434  -1.0433  -1.0118  -1.0118  -1.0115  -1.0115  -0.9970  -0.9970
    -0.9190  -0.9189  -0.9027  -0.9027  -0.8317  -0.8317  -0.8208  -0.8208
    -0.8109  -0.8109  -0.7295  -0.7295  -0.6760  -0.6759  -0.6698  -0.6698
    -0.6563  -0.6563  -0.6293  -0.6293  -0.6248  -0.6247  -0.5783  -0.5783
    -0.5709  -0.5708  -0.5548  -0.5547  -0.5323  -0.5323  -0.4814  -0.4814
    -0.4794  -0.4793  -0.4705  -0.4705  -0.4576  -0.4576  -0.4567  -0.4567
    -0.3892  -0.3891  -0.3843  -0.3842  -0.3757  -0.3757  -0.3672  -0.3672
    -0.3631  -0.3630  -0.3624  -0.3624  -0.3365  -0.3364  -0.3287  -0.3287
    -0.3009  -0.3009  -0.2926  -0.2925  -0.2918  -0.2918  -0.2574  -0.2574
    -0.2414  -0.2413  -0.1992  -0.1992  -0.1921  -0.1921  -0.1532  -0.1531
    -0.0782  -0.0782  -0.0511  -0.0511  -0.0190  -0.0189  -0.0145  -0.0145
     0.0240   0.0241   0.0396   0.0396   0.0420   0.0421   0.0747   0.0747
     0.0827   0.0828   0.0843   0.0843   0.1249   0.1249   0.1617   0.1618
     0.2495   0.2495   0.3349   0.3350   0.3368   0.3368   0.3381   0.3382
     0.3913   0.3914   0.4398   0.4398   0.4575   0.4575   0.4757   0.4757
     0.4895   0.4895   0.5214   0.5215   0.6072   0.6073   0.9739   0.9739
     1.0547   1.0548   1.2567   1.2567   2.0641   2.0642   2.1152   2.1154
     2.2078   2.2079   2.4346   2.4346   2.7753   2.7753   2.9410   2.9411
     3.0028   3.0028   3.3303   3.3304   3.8541   3.8542   4.2024   4.2024
     4.2333   4.2334   4.3995   4.3996   4.5080   4.5081   5.1156   5.1157
     5.2039   5.2041   5.2107   5.2107   5.3973   5.3973   5.4549   5.4549
     5.5407   5.5407   5.6232   5.6233   5.6633   5.6634   5.8486   5.8487
     6.1673   6.1673   6.5152   6.5153   6.5877   6.5877   6.6469   6.6469
     6.7148   6.7149   6.8733   6.8734   6.8741   6.8741   6.9404   6.9404
     7.1990   7.1991   7.5146   7.5146   7.5197   7.5197   7.5784   7.5785
     7.6853   7.6853   7.7353   7.7353   7.9828   7.9829   8.1304   8.1304

          k =-0.5000-0.7500 0.0000 (141740 PWs)   bands (ev):

  -111.0200-111.0198-111.0195-111.0192-111.0191-111.0191-111.0191-111.0190
  -111.0189-111.0186-111.0184-111.0181-110.6141-110.6139-110.6137-110.6135
  -110.6134-110.6134-110.6133-110.6133-110.6132-110.6130-110.6128-110.6126
   -68.4204 -68.4201 -68.4199 -68.4196 -68.4195 -68.4194 -68.4194 -68.4192
   -68.4191 -68.4188 -68.4186 -68.4184 -68.4183 -68.4183 -68.4183 -68.4182
   -68.4178 -68.4178 -68.4172 -68.4171 -68.4151 -68.4151 -68.4150 -68.4150
   -68.4137 -68.4136 -68.4136 -68.4135 -68.4115 -68.4114 -68.4109 -68.4108
   -68.4104 -68.4104 -68.4103 -68.4102 -68.0535 -68.0535 -68.0534 -68.0534
   -68.0529 -68.0528 -68.0524 -68.0524 -68.0503 -68.0502 -68.0502 -68.0501
   -68.0488 -68.0488 -68.0487 -68.0487 -68.0466 -68.0466 -68.0461 -68.0461
   -68.0456 -68.0456 -68.0455 -68.0454 -67.9808 -67.9806 -67.9804 -67.9803
   -67.9802 -67.9800 -67.9800 -67.9798 -67.9797 -67.9796 -67.9793 -67.9792
   -49.0068 -49.0067 -49.0067 -49.0067 -48.9998 -48.9998 -48.9992 -48.9992
   -48.9725 -48.9725 -48.9725 -48.9725 -48.9636 -48.9634 -48.9629 -48.9627
   -48.9587 -48.9580 -48.9580 -48.9573 -48.9573 -48.9573 -48.9573 -48.9573
   -48.9537 -48.9535 -48.9530 -48.9528 -48.9313 -48.9313 -48.9306 -48.9306
   -48.9229 -48.9229 -48.9229 -48.9228 -48.4444 -48.4443 -48.4443 -48.4443
   -48.4373 -48.4373 -48.4368 -48.4368 -48.4105 -48.4105 -48.4105 -48.4105
   -48.3952 -48.3952 -48.3952 -48.3952 -48.3694 -48.3694 -48.3689 -48.3689
   -48.3612 -48.3612 -48.3612 -48.3611 -48.2707 -48.2706 -48.2702 -48.2701
   -48.2660 -48.2655 -48.2655 -48.2650 -48.2611 -48.2610 -48.2606 -48.2605
    -5.4262  -5.4260  -5.4254  -5.4252  -4.0530  -4.0528  -4.0525  -4.0523
    -3.7757  -3.7755  -3.7752  -3.7750  -3.6839  -3.6837  -3.6833  -3.6832
    -3.4933  -3.4931  -3.4931  -3.4930  -3.2144  -3.2143  -3.2143  -3.2143
    -3.1467  -3.1466  -3.1462  -3.1461  -2.9025  -2.9024  -2.9021  -2.9020
    -2.8705  -2.8704  -2.8703  -2.8702  -2.7946  -2.7944  -2.7940  -2.7938
    -2.7430  -2.7430  -2.7429  -2.7429  -2.6191  -2.6191  -2.6189  -2.6189
    -2.5916  -2.5916  -2.5913  -2.5912  -2.4026  -2.4024  -2.4024  -2.4022
    -2.3947  -2.3945  -2.3945  -2.3944  -2.3196  -2.3195  -2.3194  -2.3193
    -2.2732  -2.2730  -2.2727  -2.2725  -2.1830  -2.1827  -2.1827  -2.1824
    -2.1160  -2.1160  -2.1159  -2.1159  -1.9980  -1.9980  -1.9979  -1.9979
    -1.9064  -1.9064  -1.9061  -1.9061  -1.8624  -1.8624  -1.8623  -1.8623
    -1.8525  -1.8524  -1.8522  -1.8521  -1.7562  -1.7561  -1.7558  -1.7557
    -1.5729  -1.5729  -1.5729  -1.5728  -1.4378  -1.4378  -1.4377  -1.4376
    -1.4054  -1.4054  -1.4052  -1.4051  -1.3149  -1.3149  -1.3149  -1.3148
    -1.1839  -1.1839  -1.1837  -1.1836  -1.1531  -1.1531  -1.1527  -1.1527
    -1.1337  -1.1336  -1.1336  -1.1335  -1.0711  -1.0710  -1.0708  -1.0707
    -1.0638  -1.0638  -1.0637  -1.0637  -1.0023  -1.0023  -1.0022  -1.0022
    -0.9374  -0.9373  -0.9372  -0.9371  -0.8440  -0.8440  -0.8440  -0.8439
    -0.7300  -0.7299  -0.7299  -0.7299  -0.6793  -0.6792  -0.6792  -0.6792
    -0.6435  -0.6435  -0.6434  -0.6434  -0.6127  -0.6126  -0.6126  -0.6125
    -0.5984  -0.5983  -0.5982  -0.5981  -0.5641  -0.5641  -0.5641  -0.5640
    -0.5260  -0.5260  -0.5259  -0.5259  -0.5048  -0.5048  -0.5048  -0.5048
    -0.4146  -0.4146  -0.4145  -0.4145  -0.3957  -0.3957  -0.3955  -0.3954
    -0.3620  -0.3620  -0.3620  -0.3619  -0.2982  -0.2981  -0.2980  -0.2979
    -0.2824  -0.2823  -0.2821  -0.2820  -0.2320  -0.2319  -0.2318  -0.2318
    -0.2026  -0.2025  -0.2025  -0.2024  -0.1700  -0.1700  -0.1698  -0.1698
    -0.1416  -0.1415  -0.1414  -0.1414  -0.1248  -0.1247  -0.1246  -0.1245
    -0.0519  -0.0519  -0.0518  -0.0518   0.0411   0.0411   0.0415   0.0415
     0.1007   0.1008   0.1010   0.1010   0.1379   0.1381   0.1381   0.1382
     0.2687   0.2687   0.2688   0.2688   0.3421   0.3422   0.3424   0.3425
     0.3537   0.3538   0.3538   0.3539   0.4289   0.4289   0.4289   0.4289
     0.5054   0.5054   0.5057   0.5057   1.0580   1.0581   1.0585   1.0585
     1.3977   1.3978   1.3981   1.3982   1.5619   1.5620   1.5622   1.5623
     3.0226   3.0227   3.0230   3.0231   3.0406   3.0406   3.0411   3.0411
     3.5567   3.5568   3.5569   3.5571   3.6904   3.6906   3.6907   3.6908
     3.7385   3.7386   3.7389   3.7390   4.9479   4.9480   4.9485   4.9485
     4.9916   4.9917   4.9917   4.9918   5.5075   5.5076   5.5077   5.5077
     5.6789   5.6790   5.6790   5.6791   5.8322   5.8322   5.8323   5.8323
     6.0186   6.0186   6.0188   6.0188   6.0570   6.0571   6.0572   6.0572
     6.9884   6.9884   6.9887   6.9887   7.0816   7.0817   7.0817   7.0818
     7.2940   7.2941   7.2942   7.2942   7.3671   7.3672   7.3673   7.3673
     7.3985   7.3986   7.3987   7.3987   7.7807   7.7808   7.7808   7.7809

     the Fermi energy is     0.6160 ev

!    total energy              =  -14458.51604171 Ry
     estimated scf accuracy    <          2.3E-13 Ry
     smearing contrib. (-TS)   =       0.02365883 Ry
     internal energy E=F+TS    =  -14458.53970053 Ry

     The total energy is F=E-TS. E is the sum of the following terms:
     one-electron contribution = -114677.23401016 Ry
     hartree contribution      =   57457.45801228 Ry
     xc contribution           =   -1683.33838158 Ry
     ewald contribution        =   44444.57467893 Ry

     convergence has been achieved in  11 iterations

     negative rho (up, down):  1.880E+00 0.000E+00

     Forces acting on atoms (cartesian axes, Ry/au):

     atom    1 type  1   force =     0.00000000    0.00000000    0.00000204
     atom    2 type  1   force =    -0.00000010   -0.00000002    0.00000232
     atom    3 type  2   force =     0.00000000    0.00000003    0.00000717
     atom    4 type  2   force =     0.00000035    0.00000000    0.00000732
     atom    5 type  1   force =     0.00000000    0.00000000    0.00000207
     atom    6 type  1   force =    -0.00000010    0.00000002    0.00000232
     atom    7 type  2   force =     0.00000000   -0.00000003    0.00000717
     atom    8 type  2   force =     0.00000040    0.00000000    0.00000725
     atom    9 type  1   force =    -0.00000081    0.00000000    0.00000258
     atom   10 type  1   force =     0.00000000    0.00000006    0.00000194
     atom   11 type  2   force =     0.00000019   -0.00000006    0.00000725
     atom   12 type  2   force =     0.00000000    0.00000000    0.00000702
     atom   13 type  1   force =    -0.00000060    0.00000000    0.00000241
     atom   14 type  1   force =     0.00000000   -0.00000006    0.00000194
     atom   15 type  2   force =     0.00000019    0.00000006    0.00000725
     atom   16 type  2   force =     0.00000000    0.00000000    0.00000727
     atom   17 type  1   force =     0.00000081    0.00000000    0.00000258
     atom   18 type  1   force =     0.00000010   -0.00000002    0.00000232
     atom   19 type  2   force =    -0.00000019   -0.00000006    0.00000725
     atom   20 type  2   force =    -0.00000035    0.00000000    0.00000732
     atom   21 type  1   force =     0.00000060    0.00000000    0.00000241
     atom   22 type  1   force =     0.00000010    0.00000002    0.00000232
     atom   23 type  2   force =    -0.00000019    0.00000006    0.00000725
     atom   24 type  2   force =    -0.00000040    0.00000000    0.00000725
     atom   25 type  1   force =     0.00000000    0.00000000   -0.00000054
     atom   26 type  1   force =    -0.00000023   -0.00000004   -0.00000100
     atom   27 type  2   force =     0.00000000    0.00000003   -0.00000919
     atom   28 type  2   force =     0.00000015    0.00000000   -0.00000889
     atom   29 type  1   force =     0.00000000    0.00000000   -0.00000057
     atom   30 type  1   force =    -0.00000023    0.00000004   -0.00000100
     atom   31 type  2   force =     0.00000000   -0.00000003   -0.00000919
     atom   32 type  2   force =     0.00000024    0.00000000   -0.00000881
     atom   33 type  1   force =    -0.00000104    0.00000000   -0.00000124
     atom   34 type  1   force =     0.00000000    0.00000002   -0.00000114
     atom   35 type  2   force =     0.00000014   -0.00000017   -0.00000820
     atom   36 type  2   force =     0.00000000    0.00000000   -0.00000847
     atom   37 type  1   force =    -0.00000099    0.00000000   -0.00000080
     atom   38 type  1   force =     0.00000000   -0.00000002   -0.00000114
     atom   39 type  2   force =     0.00000014    0.00000017   -0.00000820
     atom   40 type  2   force =     0.00000000    0.00000000   -0.00000750
     atom   41 type  1   force =     0.00000104    0.00000000   -0.00000124
     atom   42 type  1   force =     0.00000023   -0.00000004   -0.00000100
     atom   43 type  2   force =    -0.00000014   -0.00000017   -0.00000820
     atom   44 type  2   force =    -0.00000015    0.00000000   -0.00000889
     atom   45 type  1   force =     0.00000099    0.00000000   -0.00000080
     atom   46 type  1   force =     0.00000023    0.00000004   -0.00000100
     atom   47 type  2   force =    -0.00000014    0.00000017   -0.00000820
     atom   48 type  2   force =    -0.00000024    0.00000000   -0.00000881

     Total force =     0.000040     Total SCF correction =     0.000002


     Computing stress (Cartesian axis) and pressure


     negative rho (up, down):  1.880E+00 0.000E+00
          total   stress  (Ry/bohr**3)                   (kbar)     P=       -8.80
  -0.00008819   0.00000000   0.00000000          -12.97        0.00        0.00
   0.00000000  -0.00008963   0.00000000            0.00      -13.19        0.00
   0.00000000   0.00000000  -0.00000172            0.00        0.00       -0.25

     Message from routine bfgs:
     history already reset at previous step: stopping

     bfgs converged in  16 scf cycles and  15 bfgs steps
     (criteria: energy <  1.0E-07 Ry, force <  1.0E-06 Ry/Bohr)

     End of BFGS Geometry Optimization

     Final energy   =  -14458.5160417063 Ry

     File /users/aafshar4/scratch/CuPd_rlx_1st_BBEF-vdW.bfgs deleted, as requested
Begin final coordinates

ATOMIC_POSITIONS (angstrom)
Cu            0.0000000000        0.0000000000        0.5243847781
Cu            2.1121280717        2.1121268846        0.5243817045
Pd            0.0000000000        2.1121257742        1.9870915600
Pd            2.1121268353        0.0000000000        1.9870898556
Cu            0.0000000000        4.2242543590        0.5243813939
Cu            2.1121280717        6.3363834744        0.5243817045
Pd            0.0000000000        6.3363845848        1.9870915600
Pd            2.1121234311        4.2242543590        1.9870957492
Cu            4.2242634327        0.0000000000        0.5243805847
Cu            6.3363823590        2.1121136204        0.5243850547
Pd            4.2242518740        2.1121241694        1.9870930216
Pd            6.3363823590        0.0000000000        1.9871035718
Cu            4.2242487484        4.2242543590        0.5243805887
Cu            6.3363823590        6.3363967386        0.5243850547
Pd            4.2242518740        6.3363861896        1.9870930216
Pd            6.3363823590        4.2242543590        1.9870818880
Cu            8.4484996443        0.0000000000        0.5243805847
Cu           10.5606366463        2.1121268846        0.5243817045
Pd            8.4485112030        2.1121241694        1.9870930216
Pd           10.5606328707        0.0000000000        1.9870898556
Cu            8.4485143286        4.2242543590        0.5243805887
Cu           10.5606366463        6.3363834744        0.5243817045
Pd            8.4485112030        6.3363861896        1.9870930216
Pd           10.5606412869        4.2242543590        1.9870957492
Cu            0.0000000000        0.0000000000        3.5168364480
Cu            2.1121230342        2.1121235158        3.5168403379
Pd            0.0000000000        2.1121229029        5.0177650908
Pd            2.1121215679        0.0000000000        5.0177608820
Cu            0.0000000000        4.2242543590        3.5168442551
Cu            2.1121230342        6.3363868432        3.5168403379
Pd            0.0000000000        6.3363874561        5.0177650908
Pd            2.1121293606        4.2242543590        5.0177589770
Cu            4.2242548061        0.0000000000        3.5168440589
Cu            6.3363823590        2.1121265029        3.5168386795
Pd            4.2242507720        2.1121290754        5.0177557241
Pd            6.3363823590        0.0000000000        5.0177594514
Cu            4.2242587577        4.2242543590        3.5168335376
Cu            6.3363823590        6.3363838561        3.5168386795
Pd            4.2242507720        6.3363812836        5.0177557241
Pd            6.3363823590        4.2242543590        5.0177543479
Cu            8.4485082709        0.0000000000        3.5168440589
Cu           10.5606416838        2.1121235158        3.5168403379
Pd            8.4485123050        2.1121290754        5.0177557241
Pd           10.5606381381        0.0000000000        5.0177608820
Cu            8.4485043193        4.2242543590        3.5168335376
Cu           10.5606416838        6.3363868432        3.5168403379
Pd            8.4485123050        6.3363812836        5.0177557241
Pd           10.5606353574        4.2242543590        5.0177589770
End final coordinates



     Writing output data file /users/aafshar4/scratch/CuPd_rlx_1st_BBEF-vdW.save/
 
     init_run     :      6.55s CPU      7.16s WALL (       1 calls)
     electrons    :   3949.11s CPU   4017.47s WALL (       3 calls)
     update_pot   :      8.72s CPU      8.75s WALL (       2 calls)
     forces       :     72.94s CPU     74.62s WALL (       3 calls)
     stress       :    782.99s CPU    787.33s WALL (       3 calls)

     Called by init_run:
     wfcinit      :      0.13s CPU      0.13s WALL (       1 calls)
     potinit      :      0.63s CPU      0.73s WALL (       1 calls)
     hinit0       :      2.61s CPU      2.65s WALL (       1 calls)

     Called by electrons:
     c_bands      :   3351.16s CPU   3387.47s WALL (      36 calls)
     sum_band     :    527.59s CPU    544.28s WALL (      36 calls)
     v_of_rho     :     17.45s CPU     18.40s WALL (      37 calls)
     newd         :     52.66s CPU     67.86s WALL (      37 calls)
     mix_rho      :      3.61s CPU      3.75s WALL (      36 calls)

     Called by c_bands:
     init_us_2    :     14.46s CPU     14.53s WALL (     698 calls)
     cegterg      :   3216.25s CPU   3251.86s WALL (     320 calls)

     Called by *egterg:
     cdiaghg      :    101.91s CPU    103.48s WALL (     833 calls)
     h_psi        :   1652.80s CPU   1667.74s WALL (     869 calls)
     s_psi        :    315.87s CPU    315.90s WALL (     869 calls)
     g_psi        :      4.05s CPU      4.05s WALL (     549 calls)

     Called by h_psi:
     h_psi:calbec :    307.28s CPU    307.41s WALL (     869 calls)
     vloc_psi     :   1023.19s CPU   1029.00s WALL (     869 calls)
     add_vuspsi   :    315.72s CPU    315.87s WALL (     869 calls)

     General routines
     calbec       :    512.51s CPU    512.70s WALL (    1328 calls)
     fft          :     19.47s CPU     20.20s WALL (     554 calls)
     ffts         :      0.68s CPU      0.68s WALL (      73 calls)
     fftw         :   1123.46s CPU   1129.65s WALL (  857084 calls)
     interpolate  :      1.48s CPU      1.51s WALL (      37 calls)
     davcio       :      0.00s CPU      0.22s WALL (      11 calls)
 
     Parallel routines
     fft_scatt_xy :    221.27s CPU    222.46s WALL (  857711 calls)
     fft_scatt_yz :    433.98s CPU    437.37s WALL (  857711 calls)
 
     PWSCF        :      1h20m CPU      1h21m WALL

 
   This run was terminated on:  11: 9:48  23Apr2021            

=------------------------------------------------------------------------------=
   JOB DONE.
=------------------------------------------------------------------------------=
[1619190589.034588] [node1749:175042:0]          mpool.c:43   UCX  WARN  object 0x2f35040 was not returned to mpool ucp_requests
[1619190589.035099] [node1741:419  :0]          mpool.c:43   UCX  WARN  object 0x2f67d40 was not returned to mpool ucp_requests
[1619190589.035037] [node1749:175043:0]          mpool.c:43   UCX  WARN  object 0x47f6100 was not returned to mpool ucp_requests
